//mumax 3.12 [windows_amd64 go1.26.0(gc) CUDA-12.9]
//commit hash: 6e5c98bb
//CPU info: Unknown, Error: exec: "wmic": executable file not found in %PATH%
//GPU info: NVIDIA GeForce RTX 5070 Ti(16302MB), CUDA Driver 13.1, cc=12.0, using cc=120 PTX
//OS  info: Windows OS, Hostname: nachjs-pc1
//Timestamp: 2026-07-09 23:24:11
//(c) Arne Vansteenkiste, Dynamat LAB, Ghent University, Belgium
//This is free software without any warranty. See license.txt
//********************************************************************//
//  If you use mumax in any work or publication,                      //
//  we kindly ask you to cite the references in references.bib        //
//********************************************************************//
//output directory: CoFeB_VCMA_SingleKu1_Switch.out/
Nx := 64
Ny := 64
Nz := 1
SetGridsize(Nx, Ny, Nz)
SetCellsize(3e-9, 3e-9, 1.5e-9)
Msat = 1.0e6
Aex = 15e-12
alpha = 1
anisU = vector(0, 0, 1)
Dind = 0.06e-3
Ku1start := 0.73e6
Ku1end := 0.6e6
Nku1 := 10
m = uniform(0, 0, -1)
TableAdd(B_ext)
TableAdd(Ku1)
Nsteps := 100
Bstart := -0.5
Bend := 0.5
dB := (Bend - Bstart) / Nsteps
for j := 0; j < Nku1; j++ {
	Ku1 = Ku1start + j*(Ku1end-Ku1start)/(Nku1-1)
	Print("=== Step ", j, " of ", Nku1, ": Ku1 = ", Ku1, " ===")
	for i := 0; i <= Nsteps; i++ {
		Bz := Bstart + i*dB
		B_ext = vector(0, 0, Bz)
		Relax()
		TableSave()
		print("branch=up   B_ext = ", Bz, "  mz = ", m.comp(2).average())
	}
	for i := 1; i <= Nsteps; i++ {
		Bz := Bend - i*dB
		B_ext = vector(0, 0, Bz)
		Relax()
		TableSave()
		print("branch=down B_ext = ", Bz, "  mz = ", m.comp(2).average())
	}
}
//=== Step  0  of  10 : Ku1 =  730000  ===
//branch=up   B_ext =  -0.5   mz =  -0.9999969601631165
//branch=up   B_ext =  -0.49   mz =  -0.9999969005584717
//branch=up   B_ext =  -0.48   mz =  -0.9999969005584717
//branch=up   B_ext =  -0.47   mz =  -0.9999968409538269
//branch=up   B_ext =  -0.46   mz =  -0.9999966621398926
//branch=up   B_ext =  -0.45   mz =  -0.999996542930603
//branch=up   B_ext =  -0.44   mz =  -0.9999964833259583
//branch=up   B_ext =  -0.43   mz =  -0.9999964833259583
//branch=up   B_ext =  -0.42   mz =  -0.9999964237213135
//branch=up   B_ext =  -0.41000000000000003   mz =  -0.9999963641166687
//branch=up   B_ext =  -0.4   mz =  -0.9999963045120239
//branch=up   B_ext =  -0.39   mz =  -0.9999962449073792
//branch=up   B_ext =  -0.38   mz =  -0.9999961853027344
//branch=up   B_ext =  -0.37   mz =  -0.9999961853027344
//branch=up   B_ext =  -0.36   mz =  -0.9999960660934448
//branch=up   B_ext =  -0.35   mz =  -0.9999960064888
//branch=up   B_ext =  -0.33999999999999997   mz =  -0.9999959468841553
//branch=up   B_ext =  -0.32999999999999996   mz =  -0.9999958276748657
//branch=up   B_ext =  -0.32   mz =  -0.9999958276748657
//branch=up   B_ext =  -0.31   mz =  -0.9999955296516418
//branch=up   B_ext =  -0.3   mz =  -0.9999954700469971
//branch=up   B_ext =  -0.29000000000000004   mz =  -0.9999954104423523
//branch=up   B_ext =  -0.28   mz =  -0.9999953508377075
//branch=up   B_ext =  -0.27   mz =  -0.999995231628418
//branch=up   B_ext =  -0.26   mz =  -0.9999951720237732
//branch=up   B_ext =  -0.25   mz =  -0.9999949932098389
//branch=up   B_ext =  -0.24   mz =  -0.9999948740005493
//branch=up   B_ext =  -0.22999999999999998   mz =  -0.9999947547912598
//branch=up   B_ext =  -0.21999999999999997   mz =  -0.9999945759773254
//branch=up   B_ext =  -0.21000000000000002   mz =  -0.9999944567680359
//branch=up   B_ext =  -0.2   mz =  -0.9999943375587463
//branch=up   B_ext =  -0.19   mz =  -0.9999942183494568
//branch=up   B_ext =  -0.18   mz =  -0.9999940395355225
//branch=up   B_ext =  -0.16999999999999998   mz =  -0.9999939203262329
//branch=up   B_ext =  -0.15999999999999998   mz =  -0.999993622303009
//branch=up   B_ext =  -0.14999999999999997   mz =  -0.9999934434890747
//branch=up   B_ext =  -0.14   mz =  -0.9999933838844299
//branch=up   B_ext =  -0.13   mz =  -0.9999929666519165
//branch=up   B_ext =  -0.12   mz =  -0.999992847442627
//branch=up   B_ext =  -0.10999999999999999   mz =  -0.9999926686286926
//branch=up   B_ext =  -0.09999999999999998   mz =  -0.9999924898147583
//branch=up   B_ext =  -0.08999999999999997   mz =  -0.9999922513961792
//branch=up   B_ext =  -0.08000000000000002   mz =  -0.9999919533729553
//branch=up   B_ext =  -0.07   mz =  -0.9999916553497314
//branch=up   B_ext =  -0.06   mz =  -0.9999914765357971
//branch=up   B_ext =  -0.04999999999999999   mz =  -0.9999910593032837
//branch=up   B_ext =  -0.03999999999999998   mz =  -0.9999907612800598
//branch=up   B_ext =  -0.02999999999999997   mz =  -0.9999903440475464
//branch=up   B_ext =  -0.020000000000000018   mz =  -0.9999899864196777
//branch=up   B_ext =  -0.010000000000000009   mz =  -0.9999896287918091
//branch=up   B_ext =  0   mz =  -0.9999890923500061
//branch=up   B_ext =  0.010000000000000009   mz =  -0.9999886751174927
//branch=up   B_ext =  0.020000000000000018   mz =  -0.9999881386756897
//branch=up   B_ext =  0.030000000000000027   mz =  -0.9999876022338867
//branch=up   B_ext =  0.040000000000000036   mz =  -0.999987006187439
//branch=up   B_ext =  0.050000000000000044   mz =  -0.9999862909317017
//branch=up   B_ext =  0.06000000000000005   mz =  -0.9999855160713196
//branch=up   B_ext =  0.07000000000000006   mz =  -0.9999847412109375
//branch=up   B_ext =  0.07999999999999996   mz =  -0.9999837875366211
//branch=up   B_ext =  0.08999999999999997   mz =  -0.9999827742576599
//branch=up   B_ext =  0.09999999999999998   mz =  -0.999981701374054
//branch=up   B_ext =  0.10999999999999999   mz =  -0.9999802708625793
//branch=up   B_ext =  0.12   mz =  -0.9999788999557495
//branch=up   B_ext =  0.13   mz =  -0.9999771118164062
//branch=up   B_ext =  0.14   mz =  -0.9999751448631287
//branch=up   B_ext =  0.15000000000000002   mz =  -0.9999728202819824
//branch=up   B_ext =  0.16000000000000003   mz =  -0.9999699592590332
//branch=up   B_ext =  0.17000000000000004   mz =  -0.9999665021896362
//branch=up   B_ext =  0.18000000000000005   mz =  -0.9999622106552124
//branch=up   B_ext =  0.19000000000000006   mz =  -0.999956488609314
//branch=up   B_ext =  0.20000000000000007   mz =  -0.999949038028717
//branch=up   B_ext =  0.20999999999999996   mz =  -0.9999385476112366
//branch=up   B_ext =  0.21999999999999997   mz =  -0.9999226331710815
//branch=up   B_ext =  0.22999999999999998   mz =  -0.9998968243598938
//branch=up   B_ext =  0.24   mz =  -0.9998483657836914
//branch=up   B_ext =  0.25   mz =  -0.9997358322143555
//branch=up   B_ext =  0.26   mz =  -0.9993680119514465
//branch=up   B_ext =  0.27   mz =  -0.9986263513565063
//branch=up   B_ext =  0.28   mz =  0.9999953508377075
//branch=up   B_ext =  0.29000000000000004   mz =  0.9999954104423523
//branch=up   B_ext =  0.30000000000000004   mz =  0.9999954700469971
//branch=up   B_ext =  0.31000000000000005   mz =  0.9999955296516418
//branch=up   B_ext =  0.32000000000000006   mz =  0.9999958276748657
//branch=up   B_ext =  0.33000000000000007   mz =  0.9999958276748657
//branch=up   B_ext =  0.33999999999999997   mz =  0.9999958872795105
//branch=up   B_ext =  0.35   mz =  0.9999960064888
//branch=up   B_ext =  0.36   mz =  0.9999960660934448
//branch=up   B_ext =  0.37   mz =  0.9999961853027344
//branch=up   B_ext =  0.38   mz =  0.9999961853027344
//branch=up   B_ext =  0.39   mz =  0.9999962449073792
//branch=up   B_ext =  0.4   mz =  0.9999963045120239
//branch=up   B_ext =  0.41000000000000003   mz =  0.9999963641166687
//branch=up   B_ext =  0.42000000000000004   mz =  0.9999964237213135
//branch=up   B_ext =  0.43000000000000005   mz =  0.999996542930603
//branch=up   B_ext =  0.44000000000000006   mz =  0.999996542930603
//branch=up   B_ext =  0.45000000000000007   mz =  0.999996542930603
//branch=up   B_ext =  0.45999999999999996   mz =  0.9999966621398926
//branch=up   B_ext =  0.47   mz =  0.9999968409538269
//branch=up   B_ext =  0.48   mz =  0.9999969005584717
//branch=up   B_ext =  0.49   mz =  0.9999969005584717
//branch=up   B_ext =  0.5   mz =  0.9999969601631165
//branch=down B_ext =  0.49   mz =  0.9999969601631165
//branch=down B_ext =  0.48   mz =  0.9999969005584717
//branch=down B_ext =  0.47   mz =  0.9999968409538269
//branch=down B_ext =  0.46   mz =  0.9999966621398926
//branch=down B_ext =  0.45   mz =  0.9999966025352478
//branch=down B_ext =  0.44   mz =  0.9999964833259583
//branch=down B_ext =  0.43   mz =  0.9999964833259583
//branch=down B_ext =  0.42   mz =  0.9999964237213135
//branch=down B_ext =  0.41000000000000003   mz =  0.9999963641166687
//branch=down B_ext =  0.4   mz =  0.9999963045120239
//branch=down B_ext =  0.39   mz =  0.9999962449073792
//branch=down B_ext =  0.38   mz =  0.9999961853027344
//branch=down B_ext =  0.37   mz =  0.9999961853027344
//branch=down B_ext =  0.36   mz =  0.9999960660934448
//branch=down B_ext =  0.35   mz =  0.9999960064888
//branch=down B_ext =  0.33999999999999997   mz =  0.9999959468841553
//branch=down B_ext =  0.32999999999999996   mz =  0.9999958276748657
//branch=down B_ext =  0.32   mz =  0.9999958276748657
//branch=down B_ext =  0.31   mz =  0.9999955892562866
//branch=down B_ext =  0.3   mz =  0.9999954700469971
//branch=down B_ext =  0.29000000000000004   mz =  0.9999954104423523
//branch=down B_ext =  0.28   mz =  0.9999953508377075
//branch=down B_ext =  0.27   mz =  0.999995231628418
//branch=down B_ext =  0.26   mz =  0.9999951124191284
//branch=down B_ext =  0.25   mz =  0.9999950528144836
//branch=down B_ext =  0.24   mz =  0.9999948740005493
//branch=down B_ext =  0.22999999999999998   mz =  0.9999947547912598
//branch=down B_ext =  0.21999999999999997   mz =  0.9999945759773254
//branch=down B_ext =  0.21000000000000002   mz =  0.9999944567680359
//branch=down B_ext =  0.2   mz =  0.9999943375587463
//branch=down B_ext =  0.19   mz =  0.9999942183494568
//branch=down B_ext =  0.18   mz =  0.9999940395355225
//branch=down B_ext =  0.16999999999999998   mz =  0.9999939203262329
//branch=down B_ext =  0.15999999999999998   mz =  0.9999936819076538
//branch=down B_ext =  0.14999999999999997   mz =  0.9999935030937195
//branch=down B_ext =  0.14   mz =  0.9999933242797852
//branch=down B_ext =  0.13   mz =  0.9999929666519165
//branch=down B_ext =  0.12   mz =  0.999992847442627
//branch=down B_ext =  0.10999999999999999   mz =  0.9999926686286926
//branch=down B_ext =  0.09999999999999998   mz =  0.9999924898147583
//branch=down B_ext =  0.08999999999999997   mz =  0.9999922513961792
//branch=down B_ext =  0.08000000000000002   mz =  0.9999919533729553
//branch=down B_ext =  0.07   mz =  0.9999916553497314
//branch=down B_ext =  0.06   mz =  0.9999914169311523
//branch=down B_ext =  0.04999999999999999   mz =  0.9999910593032837
//branch=down B_ext =  0.03999999999999998   mz =  0.9999907612800598
//branch=down B_ext =  0.02999999999999997   mz =  0.9999904036521912
//branch=down B_ext =  0.020000000000000018   mz =  0.9999900460243225
//branch=down B_ext =  0.010000000000000009   mz =  0.9999896287918091
//branch=down B_ext =  0   mz =  0.9999891519546509
//branch=down B_ext =  -0.010000000000000009   mz =  0.9999886751174927
//branch=down B_ext =  -0.020000000000000018   mz =  0.9999881386756897
//branch=down B_ext =  -0.030000000000000027   mz =  0.9999874830245972
//branch=down B_ext =  -0.040000000000000036   mz =  0.999987006187439
//branch=down B_ext =  -0.050000000000000044   mz =  0.9999862909317017
//branch=down B_ext =  -0.06000000000000005   mz =  0.9999855160713196
//branch=down B_ext =  -0.07000000000000006   mz =  0.9999847412109375
//branch=down B_ext =  -0.07999999999999996   mz =  0.9999837279319763
//branch=down B_ext =  -0.08999999999999997   mz =  0.9999827742576599
//branch=down B_ext =  -0.09999999999999998   mz =  0.999981701374054
//branch=down B_ext =  -0.10999999999999999   mz =  0.9999803304672241
//branch=down B_ext =  -0.12   mz =  0.9999788999557495
//branch=down B_ext =  -0.13   mz =  0.9999771118164062
//branch=down B_ext =  -0.14   mz =  0.9999752044677734
//branch=down B_ext =  -0.15000000000000002   mz =  0.9999728202819824
//branch=down B_ext =  -0.16000000000000003   mz =  0.9999699592590332
//branch=down B_ext =  -0.17000000000000004   mz =  0.9999665021896362
//branch=down B_ext =  -0.18000000000000005   mz =  0.9999622106552124
//branch=down B_ext =  -0.19000000000000006   mz =  0.999956488609314
//branch=down B_ext =  -0.20000000000000007   mz =  0.9999490976333618
//branch=down B_ext =  -0.20999999999999996   mz =  0.9999384880065918
//branch=down B_ext =  -0.21999999999999997   mz =  0.9999227523803711
//branch=down B_ext =  -0.22999999999999998   mz =  0.9998968839645386
//branch=down B_ext =  -0.24   mz =  0.9998483061790466
//branch=down B_ext =  -0.25   mz =  0.9997357726097107
//branch=down B_ext =  -0.26   mz =  0.9993667602539062
//branch=down B_ext =  -0.27   mz =  0.9985854029655457
//branch=down B_ext =  -0.28   mz =  -0.9999953508377075
//branch=down B_ext =  -0.29000000000000004   mz =  -0.9999954104423523
//branch=down B_ext =  -0.30000000000000004   mz =  -0.9999954700469971
//branch=down B_ext =  -0.31000000000000005   mz =  -0.9999955296516418
//branch=down B_ext =  -0.32000000000000006   mz =  -0.9999958276748657
//branch=down B_ext =  -0.33000000000000007   mz =  -0.9999958276748657
//branch=down B_ext =  -0.33999999999999997   mz =  -0.9999959468841553
//branch=down B_ext =  -0.35   mz =  -0.9999960064888
//branch=down B_ext =  -0.36   mz =  -0.9999960660934448
//branch=down B_ext =  -0.37   mz =  -0.9999961853027344
//branch=down B_ext =  -0.38   mz =  -0.9999961853027344
//branch=down B_ext =  -0.39   mz =  -0.9999962449073792
//branch=down B_ext =  -0.4   mz =  -0.9999963045120239
//branch=down B_ext =  -0.41000000000000003   mz =  -0.9999963641166687
//branch=down B_ext =  -0.42000000000000004   mz =  -0.9999964237213135
//branch=down B_ext =  -0.43000000000000005   mz =  -0.9999964833259583
//branch=down B_ext =  -0.44000000000000006   mz =  -0.9999964833259583
//branch=down B_ext =  -0.45000000000000007   mz =  -0.9999966025352478
//branch=down B_ext =  -0.45999999999999996   mz =  -0.9999966621398926
//branch=down B_ext =  -0.47   mz =  -0.9999968409538269
//branch=down B_ext =  -0.48   mz =  -0.9999969005584717
//branch=down B_ext =  -0.49   mz =  -0.9999969005584717
//branch=down B_ext =  -0.5   mz =  -0.9999969601631165
//=== Step  1  of  10 : Ku1 =  715555.5625  ===
//branch=up   B_ext =  -0.5   mz =  -0.9999969005584717
//branch=up   B_ext =  -0.49   mz =  -0.9999966621398926
//branch=up   B_ext =  -0.48   mz =  -0.999996542930603
//branch=up   B_ext =  -0.47   mz =  -0.9999964833259583
//branch=up   B_ext =  -0.46   mz =  -0.9999964833259583
//branch=up   B_ext =  -0.45   mz =  -0.9999964237213135
//branch=up   B_ext =  -0.44   mz =  -0.9999963641166687
//branch=up   B_ext =  -0.43   mz =  -0.9999963045120239
//branch=up   B_ext =  -0.42   mz =  -0.9999962449073792
//branch=up   B_ext =  -0.41000000000000003   mz =  -0.9999961853027344
//branch=up   B_ext =  -0.4   mz =  -0.9999961853027344
//branch=up   B_ext =  -0.39   mz =  -0.9999960660934448
//branch=up   B_ext =  -0.38   mz =  -0.9999960064888
//branch=up   B_ext =  -0.37   mz =  -0.9999960064888
//branch=up   B_ext =  -0.36   mz =  -0.9999958276748657
//branch=up   B_ext =  -0.35   mz =  -0.9999958276748657
//branch=up   B_ext =  -0.33999999999999997   mz =  -0.9999955296516418
//branch=up   B_ext =  -0.32999999999999996   mz =  -0.9999954700469971
//branch=up   B_ext =  -0.32   mz =  -0.9999954104423523
//branch=up   B_ext =  -0.31   mz =  -0.9999953508377075
//branch=up   B_ext =  -0.3   mz =  -0.999995231628418
//branch=up   B_ext =  -0.29000000000000004   mz =  -0.9999951720237732
//branch=up   B_ext =  -0.28   mz =  -0.9999950528144836
//branch=up   B_ext =  -0.27   mz =  -0.9999948740005493
//branch=up   B_ext =  -0.26   mz =  -0.9999947547912598
//branch=up   B_ext =  -0.25   mz =  -0.9999945759773254
//branch=up   B_ext =  -0.24   mz =  -0.9999945163726807
//branch=up   B_ext =  -0.22999999999999998   mz =  -0.9999943971633911
//branch=up   B_ext =  -0.21999999999999997   mz =  -0.9999942183494568
//branch=up   B_ext =  -0.21000000000000002   mz =  -0.9999940991401672
//branch=up   B_ext =  -0.2   mz =  -0.9999940395355225
//branch=up   B_ext =  -0.19   mz =  -0.9999936819076538
//branch=up   B_ext =  -0.18   mz =  -0.9999935030937195
//branch=up   B_ext =  -0.16999999999999998   mz =  -0.9999933838844299
//branch=up   B_ext =  -0.15999999999999998   mz =  -0.999993085861206
//branch=up   B_ext =  -0.14999999999999997   mz =  -0.9999929666519165
//branch=up   B_ext =  -0.14   mz =  -0.9999927282333374
//branch=up   B_ext =  -0.13   mz =  -0.9999925494194031
//branch=up   B_ext =  -0.12   mz =  -0.9999922513961792
//branch=up   B_ext =  -0.10999999999999999   mz =  -0.9999918937683105
//branch=up   B_ext =  -0.09999999999999998   mz =  -0.9999917149543762
//branch=up   B_ext =  -0.08999999999999997   mz =  -0.9999914765357971
//branch=up   B_ext =  -0.08000000000000002   mz =  -0.9999910593032837
//branch=up   B_ext =  -0.07   mz =  -0.9999907612800598
//branch=up   B_ext =  -0.06   mz =  -0.9999904632568359
//branch=up   B_ext =  -0.04999999999999999   mz =  -0.9999899864196777
//branch=up   B_ext =  -0.03999999999999998   mz =  -0.9999896287918091
//branch=up   B_ext =  -0.02999999999999997   mz =  -0.9999891519546509
//branch=up   B_ext =  -0.020000000000000018   mz =  -0.9999887943267822
//branch=up   B_ext =  -0.010000000000000009   mz =  -0.9999881982803345
//branch=up   B_ext =  0   mz =  -0.9999877214431763
//branch=up   B_ext =  0.010000000000000009   mz =  -0.999987006187439
//branch=up   B_ext =  0.020000000000000018   mz =  -0.9999862909317017
//branch=up   B_ext =  0.030000000000000027   mz =  -0.9999855756759644
//branch=up   B_ext =  0.040000000000000036   mz =  -0.9999848008155823
//branch=up   B_ext =  0.050000000000000044   mz =  -0.9999839067459106
//branch=up   B_ext =  0.06000000000000005   mz =  -0.9999828934669495
//branch=up   B_ext =  0.07000000000000006   mz =  -0.9999817609786987
//branch=up   B_ext =  0.07999999999999996   mz =  -0.9999804496765137
//branch=up   B_ext =  0.08999999999999997   mz =  -0.9999790787696838
//branch=up   B_ext =  0.09999999999999998   mz =  -0.9999773502349854
//branch=up   B_ext =  0.10999999999999999   mz =  -0.999975323677063
//branch=up   B_ext =  0.12   mz =  -0.9999730587005615
//branch=up   B_ext =  0.13   mz =  -0.9999703168869019
//branch=up   B_ext =  0.14   mz =  -0.9999668598175049
//branch=up   B_ext =  0.15000000000000002   mz =  -0.9999627470970154
//branch=up   B_ext =  0.16000000000000003   mz =  -0.9999572038650513
//branch=up   B_ext =  0.17000000000000004   mz =  -0.9999499320983887
//branch=up   B_ext =  0.18000000000000005   mz =  -0.9999399185180664
//branch=up   B_ext =  0.19000000000000006   mz =  -0.9999247789382935
//branch=up   B_ext =  0.20000000000000007   mz =  -0.9999004602432251
//branch=up   B_ext =  0.20999999999999996   mz =  -0.999855637550354
//branch=up   B_ext =  0.21999999999999997   mz =  -0.999754786491394
//branch=up   B_ext =  0.22999999999999998   mz =  -0.9994367957115173
//branch=up   B_ext =  0.24   mz =  -0.9986042976379395
//branch=up   B_ext =  0.25   mz =  -0.997785210609436
//branch=up   B_ext =  0.26   mz =  0.9999948143959045
//branch=up   B_ext =  0.27   mz =  0.9999948740005493
//branch=up   B_ext =  0.28   mz =  0.9999950528144836
//branch=up   B_ext =  0.29000000000000004   mz =  0.9999951720237732
//branch=up   B_ext =  0.30000000000000004   mz =  0.999995231628418
//branch=up   B_ext =  0.31000000000000005   mz =  0.9999953508377075
//branch=up   B_ext =  0.32000000000000006   mz =  0.9999954104423523
//branch=up   B_ext =  0.33000000000000007   mz =  0.9999954700469971
//branch=up   B_ext =  0.33999999999999997   mz =  0.9999955296516418
//branch=up   B_ext =  0.35   mz =  0.9999958276748657
//branch=up   B_ext =  0.36   mz =  0.9999958276748657
//branch=up   B_ext =  0.37   mz =  0.9999959468841553
//branch=up   B_ext =  0.38   mz =  0.9999960064888
//branch=up   B_ext =  0.39   mz =  0.9999960660934448
//branch=up   B_ext =  0.4   mz =  0.9999961853027344
//branch=up   B_ext =  0.41000000000000003   mz =  0.9999961853027344
//branch=up   B_ext =  0.42000000000000004   mz =  0.9999962449073792
//branch=up   B_ext =  0.43000000000000005   mz =  0.9999963045120239
//branch=up   B_ext =  0.44000000000000006   mz =  0.9999963641166687
//branch=up   B_ext =  0.45000000000000007   mz =  0.9999964237213135
//branch=up   B_ext =  0.45999999999999996   mz =  0.9999964833259583
//branch=up   B_ext =  0.47   mz =  0.999996542930603
//branch=up   B_ext =  0.48   mz =  0.9999966621398926
//branch=up   B_ext =  0.49   mz =  0.9999966621398926
//branch=up   B_ext =  0.5   mz =  0.9999968409538269
//branch=down B_ext =  0.49   mz =  0.9999967813491821
//branch=down B_ext =  0.48   mz =  0.999996542930603
//branch=down B_ext =  0.47   mz =  0.9999964833259583
//branch=down B_ext =  0.46   mz =  0.9999964833259583
//branch=down B_ext =  0.45   mz =  0.9999964237213135
//branch=down B_ext =  0.44   mz =  0.9999963641166687
//branch=down B_ext =  0.43   mz =  0.9999963045120239
//branch=down B_ext =  0.42   mz =  0.9999962449073792
//branch=down B_ext =  0.41000000000000003   mz =  0.9999961853027344
//branch=down B_ext =  0.4   mz =  0.9999961853027344
//branch=down B_ext =  0.39   mz =  0.9999960660934448
//branch=down B_ext =  0.38   mz =  0.9999960064888
//branch=down B_ext =  0.37   mz =  0.9999959468841553
//branch=down B_ext =  0.36   mz =  0.9999958276748657
//branch=down B_ext =  0.35   mz =  0.9999958276748657
//branch=down B_ext =  0.33999999999999997   mz =  0.9999955296516418
//branch=down B_ext =  0.32999999999999996   mz =  0.9999954700469971
//branch=down B_ext =  0.32   mz =  0.9999954104423523
//branch=down B_ext =  0.31   mz =  0.9999953508377075
//branch=down B_ext =  0.3   mz =  0.999995231628418
//branch=down B_ext =  0.29000000000000004   mz =  0.9999951720237732
//branch=down B_ext =  0.28   mz =  0.9999950528144836
//branch=down B_ext =  0.27   mz =  0.9999948740005493
//branch=down B_ext =  0.26   mz =  0.9999947547912598
//branch=down B_ext =  0.25   mz =  0.9999945759773254
//branch=down B_ext =  0.24   mz =  0.9999945163726807
//branch=down B_ext =  0.22999999999999998   mz =  0.9999943375587463
//branch=down B_ext =  0.21999999999999997   mz =  0.9999942183494568
//branch=down B_ext =  0.21000000000000002   mz =  0.999994158744812
//branch=down B_ext =  0.2   mz =  0.9999940395355225
//branch=down B_ext =  0.19   mz =  0.999993622303009
//branch=down B_ext =  0.18   mz =  0.9999935030937195
//branch=down B_ext =  0.16999999999999998   mz =  0.9999933838844299
//branch=down B_ext =  0.15999999999999998   mz =  0.9999932050704956
//branch=down B_ext =  0.14999999999999997   mz =  0.999992847442627
//branch=down B_ext =  0.14   mz =  0.9999926686286926
//branch=down B_ext =  0.13   mz =  0.9999924898147583
//branch=down B_ext =  0.12   mz =  0.9999922513961792
//branch=down B_ext =  0.10999999999999999   mz =  0.9999919533729553
//branch=down B_ext =  0.09999999999999998   mz =  0.9999917149543762
//branch=down B_ext =  0.08999999999999997   mz =  0.9999914765357971
//branch=down B_ext =  0.08000000000000002   mz =  0.9999910593032837
//branch=down B_ext =  0.07   mz =  0.9999907612800598
//branch=down B_ext =  0.06   mz =  0.9999904632568359
//branch=down B_ext =  0.04999999999999999   mz =  0.9999899864196777
//branch=down B_ext =  0.03999999999999998   mz =  0.9999896287918091
//branch=down B_ext =  0.02999999999999997   mz =  0.9999891519546509
//branch=down B_ext =  0.020000000000000018   mz =  0.9999887943267822
//branch=down B_ext =  0.010000000000000009   mz =  0.9999881982803345
//branch=down B_ext =  0   mz =  0.9999876022338867
//branch=down B_ext =  -0.010000000000000009   mz =  0.999987006187439
//branch=down B_ext =  -0.020000000000000018   mz =  0.9999863505363464
//branch=down B_ext =  -0.030000000000000027   mz =  0.9999855756759644
//branch=down B_ext =  -0.040000000000000036   mz =  0.9999848008155823
//branch=down B_ext =  -0.050000000000000044   mz =  0.9999839067459106
//branch=down B_ext =  -0.06000000000000005   mz =  0.9999828934669495
//branch=down B_ext =  -0.07000000000000006   mz =  0.9999818205833435
//branch=down B_ext =  -0.07999999999999996   mz =  0.9999804496765137
//branch=down B_ext =  -0.08999999999999997   mz =  0.9999790787696838
//branch=down B_ext =  -0.09999999999999998   mz =  0.9999772906303406
//branch=down B_ext =  -0.10999999999999999   mz =  0.9999754428863525
//branch=down B_ext =  -0.12   mz =  0.9999730587005615
//branch=down B_ext =  -0.13   mz =  0.9999703168869019
//branch=down B_ext =  -0.14   mz =  0.9999668598175049
//branch=down B_ext =  -0.15000000000000002   mz =  0.9999626278877258
//branch=down B_ext =  -0.16000000000000003   mz =  0.9999572038650513
//branch=down B_ext =  -0.17000000000000004   mz =  0.9999499320983887
//branch=down B_ext =  -0.18000000000000005   mz =  0.9999398589134216
//branch=down B_ext =  -0.19000000000000006   mz =  0.9999247789382935
//branch=down B_ext =  -0.20000000000000007   mz =  0.9999004602432251
//branch=down B_ext =  -0.20999999999999996   mz =  0.999855637550354
//branch=down B_ext =  -0.21999999999999997   mz =  0.999754786491394
//branch=down B_ext =  -0.22999999999999998   mz =  0.9994387030601501
//branch=down B_ext =  -0.24   mz =  0.9986648559570312
//branch=down B_ext =  -0.25   mz =  -0.9999945759773254
//branch=down B_ext =  -0.26   mz =  -0.9999947547912598
//branch=down B_ext =  -0.27   mz =  -0.9999948740005493
//branch=down B_ext =  -0.28   mz =  -0.9999950528144836
//branch=down B_ext =  -0.29000000000000004   mz =  -0.9999951720237732
//branch=down B_ext =  -0.30000000000000004   mz =  -0.999995231628418
//branch=down B_ext =  -0.31000000000000005   mz =  -0.9999953508377075
//branch=down B_ext =  -0.32000000000000006   mz =  -0.9999954104423523
//branch=down B_ext =  -0.33000000000000007   mz =  -0.9999954700469971
//branch=down B_ext =  -0.33999999999999997   mz =  -0.9999955296516418
//branch=down B_ext =  -0.35   mz =  -0.9999958276748657
//branch=down B_ext =  -0.36   mz =  -0.9999958276748657
//branch=down B_ext =  -0.37   mz =  -0.9999960064888
//branch=down B_ext =  -0.38   mz =  -0.9999960064888
//branch=down B_ext =  -0.39   mz =  -0.9999961256980896
//branch=down B_ext =  -0.4   mz =  -0.9999961853027344
//branch=down B_ext =  -0.41000000000000003   mz =  -0.9999961853027344
//branch=down B_ext =  -0.42000000000000004   mz =  -0.9999962449073792
//branch=down B_ext =  -0.43000000000000005   mz =  -0.9999963045120239
//branch=down B_ext =  -0.44000000000000006   mz =  -0.9999963641166687
//branch=down B_ext =  -0.45000000000000007   mz =  -0.9999964237213135
//branch=down B_ext =  -0.45999999999999996   mz =  -0.9999964833259583
//branch=down B_ext =  -0.47   mz =  -0.999996542930603
//branch=down B_ext =  -0.48   mz =  -0.999996542930603
//branch=down B_ext =  -0.49   mz =  -0.9999966621398926
//branch=down B_ext =  -0.5   mz =  -0.9999968409538269
//=== Step  2  of  10 : Ku1 =  701111.0625  ===
//branch=up   B_ext =  -0.5   mz =  -0.999996542930603
//branch=up   B_ext =  -0.49   mz =  -0.999996542930603
//branch=up   B_ext =  -0.48   mz =  -0.9999964237213135
//branch=up   B_ext =  -0.47   mz =  -0.9999963641166687
//branch=up   B_ext =  -0.46   mz =  -0.9999963641166687
//branch=up   B_ext =  -0.45   mz =  -0.9999963045120239
//branch=up   B_ext =  -0.44   mz =  -0.9999961853027344
//branch=up   B_ext =  -0.43   mz =  -0.9999961853027344
//branch=up   B_ext =  -0.42   mz =  -0.9999960660934448
//branch=up   B_ext =  -0.41000000000000003   mz =  -0.9999960660934448
//branch=up   B_ext =  -0.4   mz =  -0.9999959468841553
//branch=up   B_ext =  -0.39   mz =  -0.9999958276748657
//branch=up   B_ext =  -0.38   mz =  -0.9999958276748657
//branch=up   B_ext =  -0.37   mz =  -0.9999955892562866
//branch=up   B_ext =  -0.36   mz =  -0.9999954700469971
//branch=up   B_ext =  -0.35   mz =  -0.9999954104423523
//branch=up   B_ext =  -0.33999999999999997   mz =  -0.9999953508377075
//branch=up   B_ext =  -0.32999999999999996   mz =  -0.999995231628418
//branch=up   B_ext =  -0.32   mz =  -0.9999951720237732
//branch=up   B_ext =  -0.31   mz =  -0.9999950528144836
//branch=up   B_ext =  -0.3   mz =  -0.9999948740005493
//branch=up   B_ext =  -0.29000000000000004   mz =  -0.9999947547912598
//branch=up   B_ext =  -0.28   mz =  -0.9999945759773254
//branch=up   B_ext =  -0.27   mz =  -0.9999945163726807
//branch=up   B_ext =  -0.26   mz =  -0.9999943971633911
//branch=up   B_ext =  -0.25   mz =  -0.9999942183494568
//branch=up   B_ext =  -0.24   mz =  -0.999994158744812
//branch=up   B_ext =  -0.22999999999999998   mz =  -0.9999940395355225
//branch=up   B_ext =  -0.21999999999999997   mz =  -0.9999936819076538
//branch=up   B_ext =  -0.21000000000000002   mz =  -0.9999935626983643
//branch=up   B_ext =  -0.2   mz =  -0.9999933838844299
//branch=up   B_ext =  -0.19   mz =  -0.9999932646751404
//branch=up   B_ext =  -0.18   mz =  -0.9999929666519165
//branch=up   B_ext =  -0.16999999999999998   mz =  -0.9999927282333374
//branch=up   B_ext =  -0.15999999999999998   mz =  -0.9999925494194031
//branch=up   B_ext =  -0.14999999999999997   mz =  -0.999992311000824
//branch=up   B_ext =  -0.14   mz =  -0.9999919533729553
//branch=up   B_ext =  -0.13   mz =  -0.9999917149543762
//branch=up   B_ext =  -0.12   mz =  -0.9999914765357971
//branch=up   B_ext =  -0.10999999999999999   mz =  -0.9999910593032837
//branch=up   B_ext =  -0.09999999999999998   mz =  -0.9999908208847046
//branch=up   B_ext =  -0.08999999999999997   mz =  -0.9999904632568359
//branch=up   B_ext =  -0.08000000000000002   mz =  -0.9999900460243225
//branch=up   B_ext =  -0.07   mz =  -0.9999896883964539
//branch=up   B_ext =  -0.06   mz =  -0.9999892115592957
//branch=up   B_ext =  -0.04999999999999999   mz =  -0.9999887943267822
//branch=up   B_ext =  -0.03999999999999998   mz =  -0.9999882578849792
//branch=up   B_ext =  -0.02999999999999997   mz =  -0.999987781047821
//branch=up   B_ext =  -0.020000000000000018   mz =  -0.9999871253967285
//branch=up   B_ext =  -0.010000000000000009   mz =  -0.9999864101409912
//branch=up   B_ext =  0   mz =  -0.9999856352806091
//branch=up   B_ext =  0.010000000000000009   mz =  -0.999984860420227
//branch=up   B_ext =  0.020000000000000018   mz =  -0.9999840259552002
//branch=up   B_ext =  0.030000000000000027   mz =  -0.9999829530715942
//branch=up   B_ext =  0.040000000000000036   mz =  -0.9999818801879883
//branch=up   B_ext =  0.050000000000000044   mz =  -0.9999805688858032
//branch=up   B_ext =  0.06000000000000005   mz =  -0.9999792575836182
//branch=up   B_ext =  0.07000000000000006   mz =  -0.9999775886535645
//branch=up   B_ext =  0.07999999999999996   mz =  -0.9999756217002869
//branch=up   B_ext =  0.08999999999999997   mz =  -0.9999733567237854
//branch=up   B_ext =  0.09999999999999998   mz =  -0.9999706745147705
//branch=up   B_ext =  0.10999999999999999   mz =  -0.9999673366546631
//branch=up   B_ext =  0.12   mz =  -0.9999631643295288
//branch=up   B_ext =  0.13   mz =  -0.9999578595161438
//branch=up   B_ext =  0.14   mz =  -0.9999510049819946
//branch=up   B_ext =  0.15000000000000002   mz =  -0.9999412298202515
//branch=up   B_ext =  0.16000000000000003   mz =  -0.9999269247055054
//branch=up   B_ext =  0.17000000000000004   mz =  -0.9999038577079773
//branch=up   B_ext =  0.18000000000000005   mz =  -0.9998623132705688
//branch=up   B_ext =  0.19000000000000006   mz =  -0.9997715950012207
//branch=up   B_ext =  0.20000000000000007   mz =  -0.9994968771934509
//branch=up   B_ext =  0.20999999999999996   mz =  -0.9987062215805054
//branch=up   B_ext =  0.21999999999999997   mz =  -0.9976933002471924
//branch=up   B_ext =  0.22999999999999998   mz =  0.9999940395355225
//branch=up   B_ext =  0.24   mz =  0.999994158744812
//branch=up   B_ext =  0.25   mz =  0.9999942183494568
//branch=up   B_ext =  0.26   mz =  0.9999943971633911
//branch=up   B_ext =  0.27   mz =  0.9999945163726807
//branch=up   B_ext =  0.28   mz =  0.9999945759773254
//branch=up   B_ext =  0.29000000000000004   mz =  0.9999947547912598
//branch=up   B_ext =  0.30000000000000004   mz =  0.9999948740005493
//branch=up   B_ext =  0.31000000000000005   mz =  0.9999950528144836
//branch=up   B_ext =  0.32000000000000006   mz =  0.9999951720237732
//branch=up   B_ext =  0.33000000000000007   mz =  0.999995231628418
//branch=up   B_ext =  0.33999999999999997   mz =  0.9999953508377075
//branch=up   B_ext =  0.35   mz =  0.9999954104423523
//branch=up   B_ext =  0.36   mz =  0.9999954700469971
//branch=up   B_ext =  0.37   mz =  0.9999955892562866
//branch=up   B_ext =  0.38   mz =  0.9999958276748657
//branch=up   B_ext =  0.39   mz =  0.9999958276748657
//branch=up   B_ext =  0.4   mz =  0.9999960064888
//branch=up   B_ext =  0.41000000000000003   mz =  0.9999960660934448
//branch=up   B_ext =  0.42000000000000004   mz =  0.9999960660934448
//branch=up   B_ext =  0.43000000000000005   mz =  0.9999961853027344
//branch=up   B_ext =  0.44000000000000006   mz =  0.9999961853027344
//branch=up   B_ext =  0.45000000000000007   mz =  0.9999963045120239
//branch=up   B_ext =  0.45999999999999996   mz =  0.9999963045120239
//branch=up   B_ext =  0.47   mz =  0.9999963641166687
//branch=up   B_ext =  0.48   mz =  0.9999964237213135
//branch=up   B_ext =  0.49   mz =  0.999996542930603
//branch=up   B_ext =  0.5   mz =  0.999996542930603
//branch=down B_ext =  0.49   mz =  0.9999964833259583
//branch=down B_ext =  0.48   mz =  0.9999964237213135
//branch=down B_ext =  0.47   mz =  0.9999963641166687
//branch=down B_ext =  0.46   mz =  0.9999963045120239
//branch=down B_ext =  0.45   mz =  0.9999963045120239
//branch=down B_ext =  0.44   mz =  0.9999961853027344
//branch=down B_ext =  0.43   mz =  0.9999961853027344
//branch=down B_ext =  0.42   mz =  0.9999960660934448
//branch=down B_ext =  0.41000000000000003   mz =  0.9999960660934448
//branch=down B_ext =  0.4   mz =  0.9999959468841553
//branch=down B_ext =  0.39   mz =  0.9999958276748657
//branch=down B_ext =  0.38   mz =  0.9999958276748657
//branch=down B_ext =  0.37   mz =  0.9999956488609314
//branch=down B_ext =  0.36   mz =  0.9999954700469971
//branch=down B_ext =  0.35   mz =  0.9999954700469971
//branch=down B_ext =  0.33999999999999997   mz =  0.9999953508377075
//branch=down B_ext =  0.32999999999999996   mz =  0.999995231628418
//branch=down B_ext =  0.32   mz =  0.9999951720237732
//branch=down B_ext =  0.31   mz =  0.9999951124191284
//branch=down B_ext =  0.3   mz =  0.9999948740005493
//branch=down B_ext =  0.29000000000000004   mz =  0.9999947547912598
//branch=down B_ext =  0.28   mz =  0.9999945759773254
//branch=down B_ext =  0.27   mz =  0.9999945163726807
//branch=down B_ext =  0.26   mz =  0.9999943971633911
//branch=down B_ext =  0.25   mz =  0.9999942779541016
//branch=down B_ext =  0.24   mz =  0.999994158744812
//branch=down B_ext =  0.22999999999999998   mz =  0.9999939203262329
//branch=down B_ext =  0.21999999999999997   mz =  0.9999937415122986
//branch=down B_ext =  0.21000000000000002   mz =  0.9999935626983643
//branch=down B_ext =  0.2   mz =  0.9999933838844299
//branch=down B_ext =  0.19   mz =  0.9999932646751404
//branch=down B_ext =  0.18   mz =  0.999992847442627
//branch=down B_ext =  0.16999999999999998   mz =  0.9999927282333374
//branch=down B_ext =  0.15999999999999998   mz =  0.9999925494194031
//branch=down B_ext =  0.14999999999999997   mz =  0.9999923706054688
//branch=down B_ext =  0.14   mz =  0.9999919533729553
//branch=down B_ext =  0.13   mz =  0.999991774559021
//branch=down B_ext =  0.12   mz =  0.9999915361404419
//branch=down B_ext =  0.10999999999999999   mz =  0.9999910593032837
//branch=down B_ext =  0.09999999999999998   mz =  0.9999908208847046
//branch=down B_ext =  0.08999999999999997   mz =  0.9999904632568359
//branch=down B_ext =  0.08000000000000002   mz =  0.9999901056289673
//branch=down B_ext =  0.07   mz =  0.9999896883964539
//branch=down B_ext =  0.06   mz =  0.9999892115592957
//branch=down B_ext =  0.04999999999999999   mz =  0.9999887943267822
//branch=down B_ext =  0.03999999999999998   mz =  0.9999882578849792
//branch=down B_ext =  0.02999999999999997   mz =  0.999987781047821
//branch=down B_ext =  0.020000000000000018   mz =  0.9999871253967285
//branch=down B_ext =  0.010000000000000009   mz =  0.9999864101409912
//branch=down B_ext =  0   mz =  0.9999856948852539
//branch=down B_ext =  -0.010000000000000009   mz =  0.9999849796295166
//branch=down B_ext =  -0.020000000000000018   mz =  0.9999840259552002
//branch=down B_ext =  -0.030000000000000027   mz =  0.999983012676239
//branch=down B_ext =  -0.040000000000000036   mz =  0.9999818801879883
//branch=down B_ext =  -0.050000000000000044   mz =  0.9999805688858032
//branch=down B_ext =  -0.06000000000000005   mz =  0.9999792575836182
//branch=down B_ext =  -0.07000000000000006   mz =  0.9999775290489197
//branch=down B_ext =  -0.07999999999999996   mz =  0.9999756217002869
//branch=down B_ext =  -0.08999999999999997   mz =  0.9999733567237854
//branch=down B_ext =  -0.09999999999999998   mz =  0.9999706149101257
//branch=down B_ext =  -0.10999999999999999   mz =  0.9999673366546631
//branch=down B_ext =  -0.12   mz =  0.9999631643295288
//branch=down B_ext =  -0.13   mz =  0.9999579191207886
//branch=down B_ext =  -0.14   mz =  0.9999510049819946
//branch=down B_ext =  -0.15000000000000002   mz =  0.9999412298202515
//branch=down B_ext =  -0.16000000000000003   mz =  0.9999268054962158
//branch=down B_ext =  -0.17000000000000004   mz =  0.9999038577079773
//branch=down B_ext =  -0.18000000000000005   mz =  0.9998623132705688
//branch=down B_ext =  -0.19000000000000006   mz =  0.9997715950012207
//branch=down B_ext =  -0.20000000000000007   mz =  0.9994974732398987
//branch=down B_ext =  -0.20999999999999996   mz =  0.9986969232559204
//branch=down B_ext =  -0.21999999999999997   mz =  0.9980306625366211
//branch=down B_ext =  -0.22999999999999998   mz =  -0.9999939203262329
//branch=down B_ext =  -0.24   mz =  -0.9999940991401672
//branch=down B_ext =  -0.25   mz =  -0.9999942779541016
//branch=down B_ext =  -0.26   mz =  -0.9999943971633911
//branch=down B_ext =  -0.27   mz =  -0.9999945163726807
//branch=down B_ext =  -0.28   mz =  -0.9999945759773254
//branch=down B_ext =  -0.29000000000000004   mz =  -0.9999947547912598
//branch=down B_ext =  -0.30000000000000004   mz =  -0.9999948740005493
//branch=down B_ext =  -0.31000000000000005   mz =  -0.9999950528144836
//branch=down B_ext =  -0.32000000000000006   mz =  -0.9999951720237732
//branch=down B_ext =  -0.33000000000000007   mz =  -0.999995231628418
//branch=down B_ext =  -0.33999999999999997   mz =  -0.9999953508377075
//branch=down B_ext =  -0.35   mz =  -0.9999954104423523
//branch=down B_ext =  -0.36   mz =  -0.9999954700469971
//branch=down B_ext =  -0.37   mz =  -0.9999955892562866
//branch=down B_ext =  -0.38   mz =  -0.9999958276748657
//branch=down B_ext =  -0.39   mz =  -0.9999958276748657
//branch=down B_ext =  -0.4   mz =  -0.9999959468841553
//branch=down B_ext =  -0.41000000000000003   mz =  -0.9999960660934448
//branch=down B_ext =  -0.42000000000000004   mz =  -0.9999960660934448
//branch=down B_ext =  -0.43000000000000005   mz =  -0.9999961853027344
//branch=down B_ext =  -0.44000000000000006   mz =  -0.9999961853027344
//branch=down B_ext =  -0.45000000000000007   mz =  -0.9999963045120239
//branch=down B_ext =  -0.45999999999999996   mz =  -0.9999963045120239
//branch=down B_ext =  -0.47   mz =  -0.9999963641166687
//branch=down B_ext =  -0.48   mz =  -0.9999964237213135
//branch=down B_ext =  -0.49   mz =  -0.999996542930603
//branch=down B_ext =  -0.5   mz =  -0.999996542930603
//=== Step  3  of  10 : Ku1 =  686666.6875  ===
//branch=up   B_ext =  -0.5   mz =  -0.9999963641166687
//branch=up   B_ext =  -0.49   mz =  -0.9999963045120239
//branch=up   B_ext =  -0.48   mz =  -0.9999963045120239
//branch=up   B_ext =  -0.47   mz =  -0.9999961853027344
//branch=up   B_ext =  -0.46   mz =  -0.9999961853027344
//branch=up   B_ext =  -0.45   mz =  -0.9999960660934448
//branch=up   B_ext =  -0.44   mz =  -0.9999960064888
//branch=up   B_ext =  -0.43   mz =  -0.9999960064888
//branch=up   B_ext =  -0.42   mz =  -0.9999958276748657
//branch=up   B_ext =  -0.41000000000000003   mz =  -0.9999958276748657
//branch=up   B_ext =  -0.4   mz =  -0.9999957084655762
//branch=up   B_ext =  -0.39   mz =  -0.9999955296516418
//branch=up   B_ext =  -0.38   mz =  -0.9999954104423523
//branch=up   B_ext =  -0.37   mz =  -0.9999953508377075
//branch=up   B_ext =  -0.36   mz =  -0.999995231628418
//branch=up   B_ext =  -0.35   mz =  -0.9999951720237732
//branch=up   B_ext =  -0.33999999999999997   mz =  -0.9999951124191284
//branch=up   B_ext =  -0.32999999999999996   mz =  -0.9999948740005493
//branch=up   B_ext =  -0.32   mz =  -0.9999948740005493
//branch=up   B_ext =  -0.31   mz =  -0.9999946355819702
//branch=up   B_ext =  -0.3   mz =  -0.9999945163726807
//branch=up   B_ext =  -0.29000000000000004   mz =  -0.9999943971633911
//branch=up   B_ext =  -0.28   mz =  -0.9999942779541016
//branch=up   B_ext =  -0.27   mz =  -0.999994158744812
//branch=up   B_ext =  -0.26   mz =  -0.9999939203262329
//branch=up   B_ext =  -0.25   mz =  -0.9999936819076538
//branch=up   B_ext =  -0.24   mz =  -0.9999935626983643
//branch=up   B_ext =  -0.22999999999999998   mz =  -0.9999934434890747
//branch=up   B_ext =  -0.21999999999999997   mz =  -0.9999932050704956
//branch=up   B_ext =  -0.21000000000000002   mz =  -0.9999929666519165
//branch=up   B_ext =  -0.2   mz =  -0.9999927282333374
//branch=up   B_ext =  -0.19   mz =  -0.9999925494194031
//branch=up   B_ext =  -0.18   mz =  -0.9999923706054688
//branch=up   B_ext =  -0.16999999999999998   mz =  -0.9999919533729553
//branch=up   B_ext =  -0.15999999999999998   mz =  -0.999991774559021
//branch=up   B_ext =  -0.14999999999999997   mz =  -0.9999915361404419
//branch=up   B_ext =  -0.14   mz =  -0.9999911785125732
//branch=up   B_ext =  -0.13   mz =  -0.9999908208847046
//branch=up   B_ext =  -0.12   mz =  -0.9999905824661255
//branch=up   B_ext =  -0.10999999999999999   mz =  -0.9999901056289673
//branch=up   B_ext =  -0.09999999999999998   mz =  -0.9999897480010986
//branch=up   B_ext =  -0.08999999999999997   mz =  -0.9999892711639404
//branch=up   B_ext =  -0.08000000000000002   mz =  -0.999988853931427
//branch=up   B_ext =  -0.07   mz =  -0.999988317489624
//branch=up   B_ext =  -0.06   mz =  -0.999987781047821
//branch=up   B_ext =  -0.04999999999999999   mz =  -0.9999871850013733
//branch=up   B_ext =  -0.03999999999999998   mz =  -0.999986469745636
//branch=up   B_ext =  -0.02999999999999997   mz =  -0.9999857544898987
//branch=up   B_ext =  -0.020000000000000018   mz =  -0.9999850988388062
//branch=up   B_ext =  -0.010000000000000009   mz =  -0.999984085559845
//branch=up   B_ext =  0   mz =  -0.9999830722808838
//branch=up   B_ext =  0.010000000000000009   mz =  -0.9999819993972778
//branch=up   B_ext =  0.020000000000000018   mz =  -0.9999808073043823
//branch=up   B_ext =  0.030000000000000027   mz =  -0.9999793767929077
//branch=up   B_ext =  0.040000000000000036   mz =  -0.999977707862854
//branch=up   B_ext =  0.050000000000000044   mz =  -0.9999759197235107
//branch=up   B_ext =  0.06000000000000005   mz =  -0.9999735951423645
//branch=up   B_ext =  0.07000000000000006   mz =  -0.9999709725379944
//branch=up   B_ext =  0.07999999999999996   mz =  -0.9999676942825317
//branch=up   B_ext =  0.08999999999999997   mz =  -0.9999637007713318
//branch=up   B_ext =  0.09999999999999998   mz =  -0.9999586343765259
//branch=up   B_ext =  0.10999999999999999   mz =  -0.9999518394470215
//branch=up   B_ext =  0.12   mz =  -0.999942421913147
//branch=up   B_ext =  0.13   mz =  -0.9999287128448486
//branch=up   B_ext =  0.14   mz =  -0.9999070167541504
//branch=up   B_ext =  0.15000000000000002   mz =  -0.9998685121536255
//branch=up   B_ext =  0.16000000000000003   mz =  -0.999786376953125
//branch=up   B_ext =  0.17000000000000004   mz =  -0.9995495676994324
//branch=up   B_ext =  0.18000000000000005   mz =  -0.9988141655921936
//branch=up   B_ext =  0.19000000000000006   mz =  -0.9981823563575745
//branch=up   B_ext =  0.20000000000000007   mz =  0.9999927282333374
//branch=up   B_ext =  0.20999999999999996   mz =  0.9999929666519165
//branch=up   B_ext =  0.21999999999999997   mz =  0.9999932646751404
//branch=up   B_ext =  0.22999999999999998   mz =  0.9999934434890747
//branch=up   B_ext =  0.24   mz =  0.9999935626983643
//branch=up   B_ext =  0.25   mz =  0.9999936819076538
//branch=up   B_ext =  0.26   mz =  0.9999939203262329
//branch=up   B_ext =  0.27   mz =  0.999994158744812
//branch=up   B_ext =  0.28   mz =  0.9999942779541016
//branch=up   B_ext =  0.29000000000000004   mz =  0.9999943971633911
//branch=up   B_ext =  0.30000000000000004   mz =  0.9999945163726807
//branch=up   B_ext =  0.31000000000000005   mz =  0.9999945759773254
//branch=up   B_ext =  0.32000000000000006   mz =  0.9999947547912598
//branch=up   B_ext =  0.33000000000000007   mz =  0.9999948740005493
//branch=up   B_ext =  0.33999999999999997   mz =  0.9999951124191284
//branch=up   B_ext =  0.35   mz =  0.9999951720237732
//branch=up   B_ext =  0.36   mz =  0.999995231628418
//branch=up   B_ext =  0.37   mz =  0.9999953508377075
//branch=up   B_ext =  0.38   mz =  0.9999954700469971
//branch=up   B_ext =  0.39   mz =  0.9999955296516418
//branch=up   B_ext =  0.4   mz =  0.9999955892562866
//branch=up   B_ext =  0.41000000000000003   mz =  0.9999958276748657
//branch=up   B_ext =  0.42000000000000004   mz =  0.9999958276748657
//branch=up   B_ext =  0.43000000000000005   mz =  0.9999960064888
//branch=up   B_ext =  0.44000000000000006   mz =  0.9999960660934448
//branch=up   B_ext =  0.45000000000000007   mz =  0.9999960660934448
//branch=up   B_ext =  0.45999999999999996   mz =  0.9999961853027344
//branch=up   B_ext =  0.47   mz =  0.9999962449073792
//branch=up   B_ext =  0.48   mz =  0.9999963045120239
//branch=up   B_ext =  0.49   mz =  0.9999963045120239
//branch=up   B_ext =  0.5   mz =  0.9999963641166687
//branch=down B_ext =  0.49   mz =  0.9999963045120239
//branch=down B_ext =  0.48   mz =  0.9999963045120239
//branch=down B_ext =  0.47   mz =  0.9999962449073792
//branch=down B_ext =  0.46   mz =  0.9999961853027344
//branch=down B_ext =  0.45   mz =  0.9999960660934448
//branch=down B_ext =  0.44   mz =  0.9999960660934448
//branch=down B_ext =  0.43   mz =  0.9999960064888
//branch=down B_ext =  0.42   mz =  0.9999958276748657
//branch=down B_ext =  0.41000000000000003   mz =  0.9999958276748657
//branch=down B_ext =  0.4   mz =  0.9999956488609314
//branch=down B_ext =  0.39   mz =  0.9999955296516418
//branch=down B_ext =  0.38   mz =  0.9999954700469971
//branch=down B_ext =  0.37   mz =  0.9999953508377075
//branch=down B_ext =  0.36   mz =  0.999995231628418
//branch=down B_ext =  0.35   mz =  0.9999951720237732
//branch=down B_ext =  0.33999999999999997   mz =  0.9999951124191284
//branch=down B_ext =  0.32999999999999996   mz =  0.9999948740005493
//branch=down B_ext =  0.32   mz =  0.9999947547912598
//branch=down B_ext =  0.31   mz =  0.9999945759773254
//branch=down B_ext =  0.3   mz =  0.9999945163726807
//branch=down B_ext =  0.29000000000000004   mz =  0.9999943971633911
//branch=down B_ext =  0.28   mz =  0.9999942183494568
//branch=down B_ext =  0.27   mz =  0.999994158744812
//branch=down B_ext =  0.26   mz =  0.9999940395355225
//branch=down B_ext =  0.25   mz =  0.9999936819076538
//branch=down B_ext =  0.24   mz =  0.999993622303009
//branch=down B_ext =  0.22999999999999998   mz =  0.9999934434890747
//branch=down B_ext =  0.21999999999999997   mz =  0.9999932646751404
//branch=down B_ext =  0.21000000000000002   mz =  0.9999929666519165
//branch=down B_ext =  0.2   mz =  0.9999927282333374
//branch=down B_ext =  0.19   mz =  0.9999925494194031
//branch=down B_ext =  0.18   mz =  0.9999923706054688
//branch=down B_ext =  0.16999999999999998   mz =  0.9999919533729553
//branch=down B_ext =  0.15999999999999998   mz =  0.999991774559021
//branch=down B_ext =  0.14999999999999997   mz =  0.9999915361404419
//branch=down B_ext =  0.14   mz =  0.9999910593032837
//branch=down B_ext =  0.13   mz =  0.9999908208847046
//branch=down B_ext =  0.12   mz =  0.9999905824661255
//branch=down B_ext =  0.10999999999999999   mz =  0.9999901056289673
//branch=down B_ext =  0.09999999999999998   mz =  0.9999897480010986
//branch=down B_ext =  0.08999999999999997   mz =  0.9999892711639404
//branch=down B_ext =  0.08000000000000002   mz =  0.9999887943267822
//branch=down B_ext =  0.07   mz =  0.999988317489624
//branch=down B_ext =  0.06   mz =  0.999987781047821
//branch=down B_ext =  0.04999999999999999   mz =  0.9999871253967285
//branch=down B_ext =  0.03999999999999998   mz =  0.999986469745636
//branch=down B_ext =  0.02999999999999997   mz =  0.9999856948852539
//branch=down B_ext =  0.020000000000000018   mz =  0.9999849796295166
//branch=down B_ext =  0.010000000000000009   mz =  0.9999841451644897
//branch=down B_ext =  0   mz =  0.9999830722808838
//branch=down B_ext =  -0.010000000000000009   mz =  0.9999819993972778
//branch=down B_ext =  -0.020000000000000018   mz =  0.9999808073043823
//branch=down B_ext =  -0.030000000000000027   mz =  0.9999793767929077
//branch=down B_ext =  -0.040000000000000036   mz =  0.9999777674674988
//branch=down B_ext =  -0.050000000000000044   mz =  0.9999759197235107
//branch=down B_ext =  -0.06000000000000005   mz =  0.9999735951423645
//branch=down B_ext =  -0.07000000000000006   mz =  0.9999709725379944
//branch=down B_ext =  -0.07999999999999996   mz =  0.9999676942825317
//branch=down B_ext =  -0.08999999999999997   mz =  0.9999637007713318
//branch=down B_ext =  -0.09999999999999998   mz =  0.9999585747718811
//branch=down B_ext =  -0.10999999999999999   mz =  0.9999518394470215
//branch=down B_ext =  -0.12   mz =  0.9999424815177917
//branch=down B_ext =  -0.13   mz =  0.9999287724494934
//branch=down B_ext =  -0.14   mz =  0.9999071359634399
//branch=down B_ext =  -0.15000000000000002   mz =  0.9998685121536255
//branch=down B_ext =  -0.16000000000000003   mz =  0.999786376953125
//branch=down B_ext =  -0.17000000000000004   mz =  0.9995495676994324
//branch=down B_ext =  -0.18000000000000005   mz =  0.9988265037536621
//branch=down B_ext =  -0.19000000000000006   mz =  0.9984313249588013
//branch=down B_ext =  -0.20000000000000007   mz =  -0.9999927282333374
//branch=down B_ext =  -0.20999999999999996   mz =  -0.9999929666519165
//branch=down B_ext =  -0.21999999999999997   mz =  -0.9999932646751404
//branch=down B_ext =  -0.22999999999999998   mz =  -0.9999933838844299
//branch=down B_ext =  -0.24   mz =  -0.9999935626983643
//branch=down B_ext =  -0.25   mz =  -0.9999936819076538
//branch=down B_ext =  -0.26   mz =  -0.9999940395355225
//branch=down B_ext =  -0.27   mz =  -0.999994158744812
//branch=down B_ext =  -0.28   mz =  -0.9999942779541016
//branch=down B_ext =  -0.29000000000000004   mz =  -0.9999943971633911
//branch=down B_ext =  -0.30000000000000004   mz =  -0.9999945163726807
//branch=down B_ext =  -0.31000000000000005   mz =  -0.9999946355819702
//branch=down B_ext =  -0.32000000000000006   mz =  -0.9999948143959045
//branch=down B_ext =  -0.33000000000000007   mz =  -0.9999948740005493
//branch=down B_ext =  -0.33999999999999997   mz =  -0.9999951124191284
//branch=down B_ext =  -0.35   mz =  -0.9999951720237732
//branch=down B_ext =  -0.36   mz =  -0.999995231628418
//branch=down B_ext =  -0.37   mz =  -0.9999953508377075
//branch=down B_ext =  -0.38   mz =  -0.9999954700469971
//branch=down B_ext =  -0.39   mz =  -0.9999955296516418
//branch=down B_ext =  -0.4   mz =  -0.9999956488609314
//branch=down B_ext =  -0.41000000000000003   mz =  -0.9999958276748657
//branch=down B_ext =  -0.42000000000000004   mz =  -0.9999958276748657
//branch=down B_ext =  -0.43000000000000005   mz =  -0.9999960064888
//branch=down B_ext =  -0.44000000000000006   mz =  -0.9999960660934448
//branch=down B_ext =  -0.45000000000000007   mz =  -0.9999960660934448
//branch=down B_ext =  -0.45999999999999996   mz =  -0.9999961853027344
//branch=down B_ext =  -0.47   mz =  -0.9999961853027344
//branch=down B_ext =  -0.48   mz =  -0.9999963045120239
//branch=down B_ext =  -0.49   mz =  -0.9999963045120239
//branch=down B_ext =  -0.5   mz =  -0.9999963641166687
//=== Step  4  of  10 : Ku1 =  672222.25  ===
//branch=up   B_ext =  -0.5   mz =  -0.9999961853027344
//branch=up   B_ext =  -0.49   mz =  -0.9999961853027344
//branch=up   B_ext =  -0.48   mz =  -0.9999960660934448
//branch=up   B_ext =  -0.47   mz =  -0.9999960660934448
//branch=up   B_ext =  -0.46   mz =  -0.9999960064888
//branch=up   B_ext =  -0.45   mz =  -0.9999958276748657
//branch=up   B_ext =  -0.44   mz =  -0.9999958276748657
//branch=up   B_ext =  -0.43   mz =  -0.9999956488609314
//branch=up   B_ext =  -0.42   mz =  -0.9999955296516418
//branch=up   B_ext =  -0.41000000000000003   mz =  -0.9999954700469971
//branch=up   B_ext =  -0.4   mz =  -0.9999953508377075
//branch=up   B_ext =  -0.39   mz =  -0.9999952912330627
//branch=up   B_ext =  -0.38   mz =  -0.999995231628418
//branch=up   B_ext =  -0.37   mz =  -0.9999950528144836
//branch=up   B_ext =  -0.36   mz =  -0.9999949336051941
//branch=up   B_ext =  -0.35   mz =  -0.9999948740005493
//branch=up   B_ext =  -0.33999999999999997   mz =  -0.9999945759773254
//branch=up   B_ext =  -0.32999999999999996   mz =  -0.9999945759773254
//branch=up   B_ext =  -0.32   mz =  -0.9999943971633911
//branch=up   B_ext =  -0.31   mz =  -0.9999942779541016
//branch=up   B_ext =  -0.3   mz =  -0.999994158744812
//branch=up   B_ext =  -0.29000000000000004   mz =  -0.9999940395355225
//branch=up   B_ext =  -0.28   mz =  -0.9999936819076538
//branch=up   B_ext =  -0.27   mz =  -0.999993622303009
//branch=up   B_ext =  -0.26   mz =  -0.9999934434890747
//branch=up   B_ext =  -0.25   mz =  -0.9999932646751404
//branch=up   B_ext =  -0.24   mz =  -0.9999929666519165
//branch=up   B_ext =  -0.22999999999999998   mz =  -0.9999927878379822
//branch=up   B_ext =  -0.21999999999999997   mz =  -0.9999926090240479
//branch=up   B_ext =  -0.21000000000000002   mz =  -0.9999923706054688
//branch=up   B_ext =  -0.2   mz =  -0.9999920129776001
//branch=up   B_ext =  -0.19   mz =  -0.999991774559021
//branch=up   B_ext =  -0.18   mz =  -0.9999915957450867
//branch=up   B_ext =  -0.16999999999999998   mz =  -0.999991238117218
//branch=up   B_ext =  -0.15999999999999998   mz =  -0.9999909400939941
//branch=up   B_ext =  -0.14999999999999997   mz =  -0.9999905824661255
//branch=up   B_ext =  -0.14   mz =  -0.9999901056289673
//branch=up   B_ext =  -0.13   mz =  -0.9999897480010986
//branch=up   B_ext =  -0.12   mz =  -0.9999892711639404
//branch=up   B_ext =  -0.10999999999999999   mz =  -0.999988853931427
//branch=up   B_ext =  -0.09999999999999998   mz =  -0.999988317489624
//branch=up   B_ext =  -0.08999999999999997   mz =  -0.9999878406524658
//branch=up   B_ext =  -0.08000000000000002   mz =  -0.9999872446060181
//branch=up   B_ext =  -0.07   mz =  -0.9999865889549255
//branch=up   B_ext =  -0.06   mz =  -0.999985933303833
//branch=up   B_ext =  -0.04999999999999999   mz =  -0.9999850988388062
//branch=up   B_ext =  -0.03999999999999998   mz =  -0.9999842047691345
//branch=up   B_ext =  -0.02999999999999997   mz =  -0.9999833106994629
//branch=up   B_ext =  -0.020000000000000018   mz =  -0.9999821186065674
//branch=up   B_ext =  -0.010000000000000009   mz =  -0.9999809861183167
//branch=up   B_ext =  0   mz =  -0.9999794960021973
//branch=up   B_ext =  0.010000000000000009   mz =  -0.9999779462814331
//branch=up   B_ext =  0.020000000000000018   mz =  -0.9999760985374451
//branch=up   B_ext =  0.030000000000000027   mz =  -0.9999738931655884
//branch=up   B_ext =  0.040000000000000036   mz =  -0.9999712705612183
//branch=up   B_ext =  0.050000000000000044   mz =  -0.9999681115150452
//branch=up   B_ext =  0.06000000000000005   mz =  -0.99996417760849
//branch=up   B_ext =  0.07000000000000006   mz =  -0.9999592304229736
//branch=up   B_ext =  0.07999999999999996   mz =  -0.9999526143074036
//branch=up   B_ext =  0.08999999999999997   mz =  -0.999943733215332
//branch=up   B_ext =  0.09999999999999998   mz =  -0.9999306201934814
//branch=up   B_ext =  0.10999999999999999   mz =  -0.9999101161956787
//branch=up   B_ext =  0.12   mz =  -0.9998742341995239
//branch=up   B_ext =  0.13   mz =  -0.9997996687889099
//branch=up   B_ext =  0.14   mz =  -0.9995930790901184
//branch=up   B_ext =  0.15000000000000002   mz =  -0.9989138841629028
//branch=up   B_ext =  0.16000000000000003   mz =  -0.9986064434051514
//branch=up   B_ext =  0.17000000000000004   mz =  0.9999911785125732
//branch=up   B_ext =  0.18000000000000005   mz =  0.9999915361404419
//branch=up   B_ext =  0.19000000000000006   mz =  0.999991774559021
//branch=up   B_ext =  0.20000000000000007   mz =  0.9999920129776001
//branch=up   B_ext =  0.20999999999999996   mz =  0.9999923706054688
//branch=up   B_ext =  0.21999999999999997   mz =  0.9999925494194031
//branch=up   B_ext =  0.22999999999999998   mz =  0.9999927878379822
//branch=up   B_ext =  0.24   mz =  0.9999929666519165
//branch=up   B_ext =  0.25   mz =  0.9999932646751404
//branch=up   B_ext =  0.26   mz =  0.9999934434890747
//branch=up   B_ext =  0.27   mz =  0.9999935626983643
//branch=up   B_ext =  0.28   mz =  0.9999936819076538
//branch=up   B_ext =  0.29000000000000004   mz =  0.9999940395355225
//branch=up   B_ext =  0.30000000000000004   mz =  0.999994158744812
//branch=up   B_ext =  0.31000000000000005   mz =  0.9999942779541016
//branch=up   B_ext =  0.32000000000000006   mz =  0.9999943971633911
//branch=up   B_ext =  0.33000000000000007   mz =  0.9999945163726807
//branch=up   B_ext =  0.33999999999999997   mz =  0.9999946355819702
//branch=up   B_ext =  0.35   mz =  0.9999947547912598
//branch=up   B_ext =  0.36   mz =  0.9999949336051941
//branch=up   B_ext =  0.37   mz =  0.9999950528144836
//branch=up   B_ext =  0.38   mz =  0.999995231628418
//branch=up   B_ext =  0.39   mz =  0.999995231628418
//branch=up   B_ext =  0.4   mz =  0.9999953508377075
//branch=up   B_ext =  0.41000000000000003   mz =  0.9999954700469971
//branch=up   B_ext =  0.42000000000000004   mz =  0.9999955296516418
//branch=up   B_ext =  0.43000000000000005   mz =  0.9999956488609314
//branch=up   B_ext =  0.44000000000000006   mz =  0.9999958276748657
//branch=up   B_ext =  0.45000000000000007   mz =  0.9999958276748657
//branch=up   B_ext =  0.45999999999999996   mz =  0.9999960064888
//branch=up   B_ext =  0.47   mz =  0.9999960660934448
//branch=up   B_ext =  0.48   mz =  0.9999960660934448
//branch=up   B_ext =  0.49   mz =  0.9999961853027344
//branch=up   B_ext =  0.5   mz =  0.9999961853027344
//branch=down B_ext =  0.49   mz =  0.9999961853027344
//branch=down B_ext =  0.48   mz =  0.9999960660934448
//branch=down B_ext =  0.47   mz =  0.9999960660934448
//branch=down B_ext =  0.46   mz =  0.9999960064888
//branch=down B_ext =  0.45   mz =  0.9999958276748657
//branch=down B_ext =  0.44   mz =  0.9999958276748657
//branch=down B_ext =  0.43   mz =  0.9999956488609314
//branch=down B_ext =  0.42   mz =  0.9999955296516418
//branch=down B_ext =  0.41000000000000003   mz =  0.9999954700469971
//branch=down B_ext =  0.4   mz =  0.9999953508377075
//branch=down B_ext =  0.39   mz =  0.9999952912330627
//branch=down B_ext =  0.38   mz =  0.9999951720237732
//branch=down B_ext =  0.37   mz =  0.9999951124191284
//branch=down B_ext =  0.36   mz =  0.9999949932098389
//branch=down B_ext =  0.35   mz =  0.9999947547912598
//branch=down B_ext =  0.33999999999999997   mz =  0.9999946355819702
//branch=down B_ext =  0.32999999999999996   mz =  0.9999945163726807
//branch=down B_ext =  0.32   mz =  0.9999943971633911
//branch=down B_ext =  0.31   mz =  0.9999942779541016
//branch=down B_ext =  0.3   mz =  0.999994158744812
//branch=down B_ext =  0.29000000000000004   mz =  0.9999940395355225
//branch=down B_ext =  0.28   mz =  0.9999936819076538
//branch=down B_ext =  0.27   mz =  0.999993622303009
//branch=down B_ext =  0.26   mz =  0.9999934434890747
//branch=down B_ext =  0.25   mz =  0.9999932646751404
//branch=down B_ext =  0.24   mz =  0.9999929666519165
//branch=down B_ext =  0.22999999999999998   mz =  0.9999927878379822
//branch=down B_ext =  0.21999999999999997   mz =  0.9999925494194031
//branch=down B_ext =  0.21000000000000002   mz =  0.9999923706054688
//branch=down B_ext =  0.2   mz =  0.9999920129776001
//branch=down B_ext =  0.19   mz =  0.999991774559021
//branch=down B_ext =  0.18   mz =  0.9999915957450867
//branch=down B_ext =  0.16999999999999998   mz =  0.9999911785125732
//branch=down B_ext =  0.15999999999999998   mz =  0.9999908804893494
//branch=down B_ext =  0.14999999999999997   mz =  0.9999905824661255
//branch=down B_ext =  0.14   mz =  0.9999901056289673
//branch=down B_ext =  0.13   mz =  0.9999897480010986
//branch=down B_ext =  0.12   mz =  0.9999892711639404
//branch=down B_ext =  0.10999999999999999   mz =  0.999988853931427
//branch=down B_ext =  0.09999999999999998   mz =  0.999988317489624
//branch=down B_ext =  0.08999999999999997   mz =  0.999987781047821
//branch=down B_ext =  0.08000000000000002   mz =  0.9999872446060181
//branch=down B_ext =  0.07   mz =  0.9999865889549255
//branch=down B_ext =  0.06   mz =  0.9999858140945435
//branch=down B_ext =  0.04999999999999999   mz =  0.9999850988388062
//branch=down B_ext =  0.03999999999999998   mz =  0.9999842643737793
//branch=down B_ext =  0.02999999999999997   mz =  0.9999833106994629
//branch=down B_ext =  0.020000000000000018   mz =  0.9999821186065674
//branch=down B_ext =  0.010000000000000009   mz =  0.9999809265136719
//branch=down B_ext =  0   mz =  0.9999794960021973
//branch=down B_ext =  -0.010000000000000009   mz =  0.9999779462814331
//branch=down B_ext =  -0.020000000000000018   mz =  0.9999760985374451
//branch=down B_ext =  -0.030000000000000027   mz =  0.9999739527702332
//branch=down B_ext =  -0.040000000000000036   mz =  0.9999712109565735
//branch=down B_ext =  -0.050000000000000044   mz =  0.9999681115150452
//branch=down B_ext =  -0.06000000000000005   mz =  0.99996417760849
//branch=down B_ext =  -0.07000000000000006   mz =  0.9999592304229736
//branch=down B_ext =  -0.07999999999999996   mz =  0.9999526143074036
//branch=down B_ext =  -0.08999999999999997   mz =  0.999943733215332
//branch=down B_ext =  -0.09999999999999998   mz =  0.9999306201934814
//branch=down B_ext =  -0.10999999999999999   mz =  0.9999101161956787
//branch=down B_ext =  -0.12   mz =  0.9998742341995239
//branch=down B_ext =  -0.13   mz =  0.9997996687889099
//branch=down B_ext =  -0.14   mz =  0.9995930194854736
//branch=down B_ext =  -0.15000000000000002   mz =  0.9989081621170044
//branch=down B_ext =  -0.16000000000000003   mz =  0.9986399412155151
//branch=down B_ext =  -0.17000000000000004   mz =  -0.9999911785125732
//branch=down B_ext =  -0.18000000000000005   mz =  -0.9999915361404419
//branch=down B_ext =  -0.19000000000000006   mz =  -0.999991774559021
//branch=down B_ext =  -0.20000000000000007   mz =  -0.9999920725822449
//branch=down B_ext =  -0.20999999999999996   mz =  -0.9999923706054688
//branch=down B_ext =  -0.21999999999999997   mz =  -0.9999926090240479
//branch=down B_ext =  -0.22999999999999998   mz =  -0.9999927878379822
//branch=down B_ext =  -0.24   mz =  -0.9999929666519165
//branch=down B_ext =  -0.25   mz =  -0.9999932646751404
//branch=down B_ext =  -0.26   mz =  -0.9999934434890747
//branch=down B_ext =  -0.27   mz =  -0.9999935626983643
//branch=down B_ext =  -0.28   mz =  -0.9999936819076538
//branch=down B_ext =  -0.29000000000000004   mz =  -0.9999940395355225
//branch=down B_ext =  -0.30000000000000004   mz =  -0.999994158744812
//branch=down B_ext =  -0.31000000000000005   mz =  -0.9999942779541016
//branch=down B_ext =  -0.32000000000000006   mz =  -0.9999943971633911
//branch=down B_ext =  -0.33000000000000007   mz =  -0.9999945163726807
//branch=down B_ext =  -0.33999999999999997   mz =  -0.9999945759773254
//branch=down B_ext =  -0.35   mz =  -0.9999948143959045
//branch=down B_ext =  -0.36   mz =  -0.9999949932098389
//branch=down B_ext =  -0.37   mz =  -0.9999951124191284
//branch=down B_ext =  -0.38   mz =  -0.999995231628418
//branch=down B_ext =  -0.39   mz =  -0.9999952912330627
//branch=down B_ext =  -0.4   mz =  -0.9999953508377075
//branch=down B_ext =  -0.41000000000000003   mz =  -0.9999954700469971
//branch=down B_ext =  -0.42000000000000004   mz =  -0.9999955296516418
//branch=down B_ext =  -0.43000000000000005   mz =  -0.9999956488609314
//branch=down B_ext =  -0.44000000000000006   mz =  -0.9999958276748657
//branch=down B_ext =  -0.45000000000000007   mz =  -0.9999958276748657
//branch=down B_ext =  -0.45999999999999996   mz =  -0.9999959468841553
//branch=down B_ext =  -0.47   mz =  -0.9999960660934448
//branch=down B_ext =  -0.48   mz =  -0.9999960660934448
//branch=down B_ext =  -0.49   mz =  -0.9999961853027344
//branch=down B_ext =  -0.5   mz =  -0.9999962449073792
//=== Step  5  of  10 : Ku1 =  657777.75  ===
//branch=up   B_ext =  -0.5   mz =  -0.9999960660934448
//branch=up   B_ext =  -0.49   mz =  -0.9999959468841553
//branch=up   B_ext =  -0.48   mz =  -0.9999959468841553
//branch=up   B_ext =  -0.47   mz =  -0.9999958276748657
//branch=up   B_ext =  -0.46   mz =  -0.9999956488609314
//branch=up   B_ext =  -0.45   mz =  -0.9999955296516418
//branch=up   B_ext =  -0.44   mz =  -0.9999954700469971
//branch=up   B_ext =  -0.43   mz =  -0.9999953508377075
//branch=up   B_ext =  -0.42   mz =  -0.9999952912330627
//branch=up   B_ext =  -0.41000000000000003   mz =  -0.999995231628418
//branch=up   B_ext =  -0.4   mz =  -0.9999951124191284
//branch=up   B_ext =  -0.39   mz =  -0.9999950528144836
//branch=up   B_ext =  -0.38   mz =  -0.9999948143959045
//branch=up   B_ext =  -0.37   mz =  -0.9999946355819702
//branch=up   B_ext =  -0.36   mz =  -0.9999945163726807
//branch=up   B_ext =  -0.35   mz =  -0.9999943971633911
//branch=up   B_ext =  -0.33999999999999997   mz =  -0.9999942779541016
//branch=up   B_ext =  -0.32999999999999996   mz =  -0.999994158744812
//branch=up   B_ext =  -0.32   mz =  -0.9999940395355225
//branch=up   B_ext =  -0.31   mz =  -0.9999938011169434
//branch=up   B_ext =  -0.3   mz =  -0.9999935626983643
//branch=up   B_ext =  -0.29000000000000004   mz =  -0.9999934434890747
//branch=up   B_ext =  -0.28   mz =  -0.9999932646751404
//branch=up   B_ext =  -0.27   mz =  -0.9999929666519165
//branch=up   B_ext =  -0.26   mz =  -0.9999927878379822
//branch=up   B_ext =  -0.25   mz =  -0.9999926090240479
//branch=up   B_ext =  -0.24   mz =  -0.9999924302101135
//branch=up   B_ext =  -0.22999999999999998   mz =  -0.9999921321868896
//branch=up   B_ext =  -0.21999999999999997   mz =  -0.9999918341636658
//branch=up   B_ext =  -0.21000000000000002   mz =  -0.9999915957450867
//branch=up   B_ext =  -0.2   mz =  -0.9999911785125732
//branch=up   B_ext =  -0.19   mz =  -0.9999909400939941
//branch=up   B_ext =  -0.18   mz =  -0.9999905824661255
//branch=up   B_ext =  -0.16999999999999998   mz =  -0.9999901056289673
//branch=up   B_ext =  -0.15999999999999998   mz =  -0.9999898672103882
//branch=up   B_ext =  -0.14999999999999997   mz =  -0.99998939037323
//branch=up   B_ext =  -0.14   mz =  -0.9999889135360718
//branch=up   B_ext =  -0.13   mz =  -0.9999883770942688
//branch=up   B_ext =  -0.12   mz =  -0.9999879598617554
//branch=up   B_ext =  -0.10999999999999999   mz =  -0.9999872446060181
//branch=up   B_ext =  -0.09999999999999998   mz =  -0.9999867677688599
//branch=up   B_ext =  -0.08999999999999997   mz =  -0.9999859929084778
//branch=up   B_ext =  -0.08000000000000002   mz =  -0.9999852180480957
//branch=up   B_ext =  -0.07   mz =  -0.9999843835830688
//branch=up   B_ext =  -0.06   mz =  -0.9999834299087524
//branch=up   B_ext =  -0.04999999999999999   mz =  -0.9999822378158569
//branch=up   B_ext =  -0.03999999999999998   mz =  -0.9999811053276062
//branch=up   B_ext =  -0.02999999999999997   mz =  -0.9999796152114868
//branch=up   B_ext =  -0.020000000000000018   mz =  -0.9999781847000122
//branch=up   B_ext =  -0.010000000000000009   mz =  -0.9999762773513794
//branch=up   B_ext =  0   mz =  -0.9999740719795227
//branch=up   B_ext =  0.010000000000000009   mz =  -0.9999716281890869
//branch=up   B_ext =  0.020000000000000018   mz =  -0.9999684691429138
//branch=up   B_ext =  0.030000000000000027   mz =  -0.9999645948410034
//branch=up   B_ext =  0.040000000000000036   mz =  -0.9999598264694214
//branch=up   B_ext =  0.050000000000000044   mz =  -0.9999533891677856
//branch=up   B_ext =  0.06000000000000005   mz =  -0.9999448657035828
//branch=up   B_ext =  0.07000000000000006   mz =  -0.9999323487281799
//branch=up   B_ext =  0.07999999999999996   mz =  -0.9999129772186279
//branch=up   B_ext =  0.08999999999999997   mz =  -0.9998794198036194
//branch=up   B_ext =  0.09999999999999998   mz =  -0.9998115301132202
//branch=up   B_ext =  0.10999999999999999   mz =  -0.9996307492256165
//branch=up   B_ext =  0.12   mz =  -0.9990217685699463
//branch=up   B_ext =  0.13   mz =  -0.9986835718154907
//branch=up   B_ext =  0.14   mz =  0.9999889135360718
//branch=up   B_ext =  0.15000000000000002   mz =  0.9999892711639404
//branch=up   B_ext =  0.16000000000000003   mz =  0.9999898076057434
//branch=up   B_ext =  0.17000000000000004   mz =  0.9999901652336121
//branch=up   B_ext =  0.18000000000000005   mz =  0.9999905824661255
//branch=up   B_ext =  0.19000000000000006   mz =  0.9999909400939941
//branch=up   B_ext =  0.20000000000000007   mz =  0.9999911785125732
//branch=up   B_ext =  0.20999999999999996   mz =  0.9999915957450867
//branch=up   B_ext =  0.21999999999999997   mz =  0.9999918341636658
//branch=up   B_ext =  0.22999999999999998   mz =  0.9999920725822449
//branch=up   B_ext =  0.24   mz =  0.9999924302101135
//branch=up   B_ext =  0.25   mz =  0.9999926090240479
//branch=up   B_ext =  0.26   mz =  0.9999927878379822
//branch=up   B_ext =  0.27   mz =  0.9999929666519165
//branch=up   B_ext =  0.28   mz =  0.9999932646751404
//branch=up   B_ext =  0.29000000000000004   mz =  0.9999934434890747
//branch=up   B_ext =  0.30000000000000004   mz =  0.999993622303009
//branch=up   B_ext =  0.31000000000000005   mz =  0.9999937415122986
//branch=up   B_ext =  0.32000000000000006   mz =  0.9999939203262329
//branch=up   B_ext =  0.33000000000000007   mz =  0.9999942183494568
//branch=up   B_ext =  0.33999999999999997   mz =  0.9999942779541016
//branch=up   B_ext =  0.35   mz =  0.9999943971633911
//branch=up   B_ext =  0.36   mz =  0.9999945163726807
//branch=up   B_ext =  0.37   mz =  0.9999946355819702
//branch=up   B_ext =  0.38   mz =  0.9999948740005493
//branch=up   B_ext =  0.39   mz =  0.9999950528144836
//branch=up   B_ext =  0.4   mz =  0.9999951124191284
//branch=up   B_ext =  0.41000000000000003   mz =  0.999995231628418
//branch=up   B_ext =  0.42000000000000004   mz =  0.9999953508377075
//branch=up   B_ext =  0.43000000000000005   mz =  0.9999953508377075
//branch=up   B_ext =  0.44000000000000006   mz =  0.9999954700469971
//branch=up   B_ext =  0.45000000000000007   mz =  0.9999955296516418
//branch=up   B_ext =  0.45999999999999996   mz =  0.999995768070221
//branch=up   B_ext =  0.47   mz =  0.9999958276748657
//branch=up   B_ext =  0.48   mz =  0.9999958276748657
//branch=up   B_ext =  0.49   mz =  0.9999960064888
//branch=up   B_ext =  0.5   mz =  0.9999960660934448
//branch=down B_ext =  0.49   mz =  0.9999960064888
//branch=down B_ext =  0.48   mz =  0.9999959468841553
//branch=down B_ext =  0.47   mz =  0.9999958276748657
//branch=down B_ext =  0.46   mz =  0.999995768070221
//branch=down B_ext =  0.45   mz =  0.9999955296516418
//branch=down B_ext =  0.44   mz =  0.9999954700469971
//branch=down B_ext =  0.43   mz =  0.9999953508377075
//branch=down B_ext =  0.42   mz =  0.9999952912330627
//branch=down B_ext =  0.41000000000000003   mz =  0.999995231628418
//branch=down B_ext =  0.4   mz =  0.9999951124191284
//branch=down B_ext =  0.39   mz =  0.9999949932098389
//branch=down B_ext =  0.38   mz =  0.9999948740005493
//branch=down B_ext =  0.37   mz =  0.9999946355819702
//branch=down B_ext =  0.36   mz =  0.9999945163726807
//branch=down B_ext =  0.35   mz =  0.9999943971633911
//branch=down B_ext =  0.33999999999999997   mz =  0.9999942779541016
//branch=down B_ext =  0.32999999999999996   mz =  0.999994158744812
//branch=down B_ext =  0.32   mz =  0.9999940395355225
//branch=down B_ext =  0.31   mz =  0.9999937415122986
//branch=down B_ext =  0.3   mz =  0.999993622303009
//branch=down B_ext =  0.29000000000000004   mz =  0.9999934434890747
//branch=down B_ext =  0.28   mz =  0.9999932646751404
//branch=down B_ext =  0.27   mz =  0.9999929666519165
//branch=down B_ext =  0.26   mz =  0.9999927878379822
//branch=down B_ext =  0.25   mz =  0.9999926090240479
//branch=down B_ext =  0.24   mz =  0.9999924302101135
//branch=down B_ext =  0.22999999999999998   mz =  0.9999921321868896
//branch=down B_ext =  0.21999999999999997   mz =  0.9999918341636658
//branch=down B_ext =  0.21000000000000002   mz =  0.9999915957450867
//branch=down B_ext =  0.2   mz =  0.9999912977218628
//branch=down B_ext =  0.19   mz =  0.9999909400939941
//branch=down B_ext =  0.18   mz =  0.9999905824661255
//branch=down B_ext =  0.16999999999999998   mz =  0.9999902248382568
//branch=down B_ext =  0.15999999999999998   mz =  0.9999898672103882
//branch=down B_ext =  0.14999999999999997   mz =  0.99998939037323
//branch=down B_ext =  0.14   mz =  0.9999889135360718
//branch=down B_ext =  0.13   mz =  0.9999883770942688
//branch=down B_ext =  0.12   mz =  0.9999879002571106
//branch=down B_ext =  0.10999999999999999   mz =  0.9999872446060181
//branch=down B_ext =  0.09999999999999998   mz =  0.9999867081642151
//branch=down B_ext =  0.08999999999999997   mz =  0.999985933303833
//branch=down B_ext =  0.08000000000000002   mz =  0.9999852180480957
//branch=down B_ext =  0.07   mz =  0.9999843835830688
//branch=down B_ext =  0.06   mz =  0.9999834299087524
//branch=down B_ext =  0.04999999999999999   mz =  0.9999822378158569
//branch=down B_ext =  0.03999999999999998   mz =  0.9999810457229614
//branch=down B_ext =  0.02999999999999997   mz =  0.9999797344207764
//branch=down B_ext =  0.020000000000000018   mz =  0.9999781847000122
//branch=down B_ext =  0.010000000000000009   mz =  0.9999762773513794
//branch=down B_ext =  0   mz =  0.9999741911888123
//branch=down B_ext =  -0.010000000000000009   mz =  0.9999716877937317
//branch=down B_ext =  -0.020000000000000018   mz =  0.9999684691429138
//branch=down B_ext =  -0.030000000000000027   mz =  0.999964714050293
//branch=down B_ext =  -0.040000000000000036   mz =  0.9999598264694214
//branch=down B_ext =  -0.050000000000000044   mz =  0.9999535083770752
//branch=down B_ext =  -0.06000000000000005   mz =  0.999944806098938
//branch=down B_ext =  -0.07000000000000006   mz =  0.9999324083328247
//branch=down B_ext =  -0.07999999999999996   mz =  0.9999129772186279
//branch=down B_ext =  -0.08999999999999997   mz =  0.9998794198036194
//branch=down B_ext =  -0.09999999999999998   mz =  0.9998114705085754
//branch=down B_ext =  -0.10999999999999999   mz =  0.9996307492256165
//branch=down B_ext =  -0.12   mz =  0.9990053176879883
//branch=down B_ext =  -0.13   mz =  0.9987272024154663
//branch=down B_ext =  -0.14   mz =  -0.9999889135360718
//branch=down B_ext =  -0.15000000000000002   mz =  -0.99998939037323
//branch=down B_ext =  -0.16000000000000003   mz =  -0.9999898076057434
//branch=down B_ext =  -0.17000000000000004   mz =  -0.9999901652336121
//branch=down B_ext =  -0.18000000000000005   mz =  -0.9999905824661255
//branch=down B_ext =  -0.19000000000000006   mz =  -0.9999909400939941
//branch=down B_ext =  -0.20000000000000007   mz =  -0.9999912977218628
//branch=down B_ext =  -0.20999999999999996   mz =  -0.9999915957450867
//branch=down B_ext =  -0.21999999999999997   mz =  -0.999991774559021
//branch=down B_ext =  -0.22999999999999998   mz =  -0.9999921917915344
//branch=down B_ext =  -0.24   mz =  -0.9999924302101135
//branch=down B_ext =  -0.25   mz =  -0.9999926090240479
//branch=down B_ext =  -0.26   mz =  -0.9999927878379822
//branch=down B_ext =  -0.27   mz =  -0.9999929666519165
//branch=down B_ext =  -0.28   mz =  -0.9999932646751404
//branch=down B_ext =  -0.29000000000000004   mz =  -0.9999934434890747
//branch=down B_ext =  -0.30000000000000004   mz =  -0.9999935626983643
//branch=down B_ext =  -0.31000000000000005   mz =  -0.9999937415122986
//branch=down B_ext =  -0.32000000000000006   mz =  -0.9999940395355225
//branch=down B_ext =  -0.33000000000000007   mz =  -0.999994158744812
//branch=down B_ext =  -0.33999999999999997   mz =  -0.9999942779541016
//branch=down B_ext =  -0.35   mz =  -0.9999943971633911
//branch=down B_ext =  -0.36   mz =  -0.9999945163726807
//branch=down B_ext =  -0.37   mz =  -0.9999946355819702
//branch=down B_ext =  -0.38   mz =  -0.9999947547912598
//branch=down B_ext =  -0.39   mz =  -0.9999950528144836
//branch=down B_ext =  -0.4   mz =  -0.9999950528144836
//branch=down B_ext =  -0.41000000000000003   mz =  -0.999995231628418
//branch=down B_ext =  -0.42000000000000004   mz =  -0.9999952912330627
//branch=down B_ext =  -0.43000000000000005   mz =  -0.9999953508377075
//branch=down B_ext =  -0.44000000000000006   mz =  -0.9999954700469971
//branch=down B_ext =  -0.45000000000000007   mz =  -0.9999955296516418
//branch=down B_ext =  -0.45999999999999996   mz =  -0.9999957084655762
//branch=down B_ext =  -0.47   mz =  -0.9999958276748657
//branch=down B_ext =  -0.48   mz =  -0.9999959468841553
//branch=down B_ext =  -0.49   mz =  -0.9999960064888
//branch=down B_ext =  -0.5   mz =  -0.9999960660934448
//=== Step  6  of  10 : Ku1 =  643333.3125  ===
//branch=up   B_ext =  -0.5   mz =  -0.9999958276748657
//branch=up   B_ext =  -0.49   mz =  -0.9999958276748657
//branch=up   B_ext =  -0.48   mz =  -0.9999955296516418
//branch=up   B_ext =  -0.47   mz =  -0.9999954700469971
//branch=up   B_ext =  -0.46   mz =  -0.9999953508377075
//branch=up   B_ext =  -0.45   mz =  -0.9999952912330627
//branch=up   B_ext =  -0.44   mz =  -0.999995231628418
//branch=up   B_ext =  -0.43   mz =  -0.9999951124191284
//branch=up   B_ext =  -0.42   mz =  -0.9999949932098389
//branch=up   B_ext =  -0.41000000000000003   mz =  -0.9999947547912598
//branch=up   B_ext =  -0.4   mz =  -0.999994695186615
//branch=up   B_ext =  -0.39   mz =  -0.9999945163726807
//branch=up   B_ext =  -0.38   mz =  -0.9999944567680359
//branch=up   B_ext =  -0.37   mz =  -0.9999942779541016
//branch=up   B_ext =  -0.36   mz =  -0.9999942183494568
//branch=up   B_ext =  -0.35   mz =  -0.9999940395355225
//branch=up   B_ext =  -0.33999999999999997   mz =  -0.9999938011169434
//branch=up   B_ext =  -0.32999999999999996   mz =  -0.999993622303009
//branch=up   B_ext =  -0.32   mz =  -0.9999934434890747
//branch=up   B_ext =  -0.31   mz =  -0.9999933242797852
//branch=up   B_ext =  -0.3   mz =  -0.9999929666519165
//branch=up   B_ext =  -0.29000000000000004   mz =  -0.9999927878379822
//branch=up   B_ext =  -0.28   mz =  -0.9999926090240479
//branch=up   B_ext =  -0.27   mz =  -0.9999924302101135
//branch=up   B_ext =  -0.26   mz =  -0.9999921321868896
//branch=up   B_ext =  -0.25   mz =  -0.9999918341636658
[...]
//branch=up   B_ext =  0.44000000000000006   mz =  0.9999944567680359
//branch=up   B_ext =  0.45000000000000007   mz =  0.9999945759773254
//branch=up   B_ext =  0.45999999999999996   mz =  0.9999946355819702
//branch=up   B_ext =  0.47   mz =  0.9999947547912598
//branch=up   B_ext =  0.48   mz =  0.9999950528144836
//branch=up   B_ext =  0.49   mz =  0.9999951124191284
//branch=up   B_ext =  0.5   mz =  0.999995231628418
//branch=down B_ext =  0.49   mz =  0.9999951720237732
//branch=down B_ext =  0.48   mz =  0.9999950528144836
//branch=down B_ext =  0.47   mz =  0.9999947547912598
//branch=down B_ext =  0.46   mz =  0.999994695186615
//branch=down B_ext =  0.45   mz =  0.9999945759773254
//branch=down B_ext =  0.44   mz =  0.9999944567680359
//branch=down B_ext =  0.43   mz =  0.9999943375587463
//branch=down B_ext =  0.42   mz =  0.9999942183494568
//branch=down B_ext =  0.41000000000000003   mz =  0.9999940395355225
//branch=down B_ext =  0.4   mz =  0.9999939203262329
//branch=down B_ext =  0.39   mz =  0.999993622303009
//branch=down B_ext =  0.38   mz =  0.9999935030937195
//branch=down B_ext =  0.37   mz =  0.9999933242797852
//branch=down B_ext =  0.36   mz =  0.9999929666519165
//branch=down B_ext =  0.35   mz =  0.999992847442627
//branch=down B_ext =  0.33999999999999997   mz =  0.9999926090240479
//branch=down B_ext =  0.32999999999999996   mz =  0.9999924302101135
//branch=down B_ext =  0.32   mz =  0.9999922513961792
//branch=down B_ext =  0.31   mz =  0.9999918937683105
//branch=down B_ext =  0.3   mz =  0.9999916553497314
//branch=down B_ext =  0.29000000000000004   mz =  0.9999914169311523
//branch=down B_ext =  0.28   mz =  0.9999909996986389
//branch=down B_ext =  0.27   mz =  0.999990701675415
//branch=down B_ext =  0.26   mz =  0.9999903440475464
//branch=down B_ext =  0.25   mz =  0.999989926815033
//branch=down B_ext =  0.24   mz =  0.9999895691871643
//branch=down B_ext =  0.22999999999999998   mz =  0.9999890327453613
//branch=down B_ext =  0.21999999999999997   mz =  0.9999886751174927
//branch=down B_ext =  0.21000000000000002   mz =  0.9999880790710449
//branch=down B_ext =  0.2   mz =  0.9999874830245972
//branch=down B_ext =  0.19   mz =  0.9999869465827942
//branch=down B_ext =  0.18   mz =  0.9999861717224121
//branch=down B_ext =  0.16999999999999998   mz =  0.9999854564666748
//branch=down B_ext =  0.15999999999999998   mz =  0.999984622001648
//branch=down B_ext =  0.14999999999999997   mz =  0.9999836683273315
//branch=down B_ext =  0.14   mz =  0.9999826550483704
//branch=down B_ext =  0.13   mz =  0.9999815225601196
//branch=down B_ext =  0.12   mz =  0.9999802112579346
//branch=down B_ext =  0.10999999999999999   mz =  0.9999786615371704
//branch=down B_ext =  0.09999999999999998   mz =  0.9999769926071167
//branch=down B_ext =  0.08999999999999997   mz =  0.9999749660491943
//branch=down B_ext =  0.08000000000000002   mz =  0.9999725222587585
//branch=down B_ext =  0.07   mz =  0.9999696016311646
//branch=down B_ext =  0.06   mz =  0.9999659657478333
//branch=down B_ext =  0.04999999999999999   mz =  0.9999615550041199
//branch=down B_ext =  0.03999999999999998   mz =  0.9999558329582214
//branch=down B_ext =  0.02999999999999997   mz =  0.9999480247497559
//branch=down B_ext =  0.020000000000000018   mz =  0.9999370574951172
//branch=down B_ext =  0.010000000000000009   mz =  0.9999205470085144
//branch=down B_ext =  0   mz =  0.9998930096626282
//branch=down B_ext =  -0.010000000000000009   mz =  0.9998406171798706
//branch=down B_ext =  -0.020000000000000018   mz =  0.9997158050537109
//branch=down B_ext =  -0.030000000000000027   mz =  0.99930340051651
//branch=down B_ext =  -0.040000000000000036   mz =  0.998599112033844
//branch=down B_ext =  -0.050000000000000044   mz =  -0.9999616146087646
//branch=down B_ext =  -0.06000000000000005   mz =  -0.999966025352478
//branch=down B_ext =  -0.07000000000000006   mz =  -0.9999696016311646
//branch=down B_ext =  -0.07999999999999996   mz =  -0.9999725222587585
//branch=down B_ext =  -0.08999999999999997   mz =  -0.9999749660491943
//branch=down B_ext =  -0.09999999999999998   mz =  -0.9999769926071167
//branch=down B_ext =  -0.10999999999999999   mz =  -0.9999786615371704
//branch=down B_ext =  -0.12   mz =  -0.9999802112579346
//branch=down B_ext =  -0.13   mz =  -0.9999815225601196
//branch=down B_ext =  -0.14   mz =  -0.9999826550483704
//branch=down B_ext =  -0.15000000000000002   mz =  -0.9999836683273315
//branch=down B_ext =  -0.16000000000000003   mz =  -0.999984622001648
//branch=down B_ext =  -0.17000000000000004   mz =  -0.9999854564666748
//branch=down B_ext =  -0.18000000000000005   mz =  -0.9999862313270569
//branch=down B_ext =  -0.19000000000000006   mz =  -0.9999869465827942
//branch=down B_ext =  -0.20000000000000007   mz =  -0.9999875426292419
//branch=down B_ext =  -0.20999999999999996   mz =  -0.9999880790710449
//branch=down B_ext =  -0.21999999999999997   mz =  -0.9999886751174927
//branch=down B_ext =  -0.22999999999999998   mz =  -0.9999890327453613
//branch=down B_ext =  -0.24   mz =  -0.9999896287918091
//branch=down B_ext =  -0.25   mz =  -0.9999899864196777
//branch=down B_ext =  -0.26   mz =  -0.9999904036521912
//branch=down B_ext =  -0.27   mz =  -0.999990701675415
//branch=down B_ext =  -0.28   mz =  -0.9999909400939941
//branch=down B_ext =  -0.29000000000000004   mz =  -0.9999914169311523
//branch=down B_ext =  -0.30000000000000004   mz =  -0.9999916553497314
//branch=down B_ext =  -0.31000000000000005   mz =  -0.9999918937683105
//branch=down B_ext =  -0.32000000000000006   mz =  -0.9999922513961792
//branch=down B_ext =  -0.33000000000000007   mz =  -0.9999924302101135
//branch=down B_ext =  -0.33999999999999997   mz =  -0.9999926090240479
//branch=down B_ext =  -0.35   mz =  -0.999992847442627
//branch=down B_ext =  -0.36   mz =  -0.9999929666519165
//branch=down B_ext =  -0.37   mz =  -0.9999933242797852
//branch=down B_ext =  -0.38   mz =  -0.9999935030937195
//branch=down B_ext =  -0.39   mz =  -0.9999936819076538
//branch=down B_ext =  -0.4   mz =  -0.9999939203262329
//branch=down B_ext =  -0.41000000000000003   mz =  -0.9999940395355225
//branch=down B_ext =  -0.42000000000000004   mz =  -0.9999942183494568
//branch=down B_ext =  -0.43000000000000005   mz =  -0.9999943375587463
//branch=down B_ext =  -0.44000000000000006   mz =  -0.9999944567680359
//branch=down B_ext =  -0.45000000000000007   mz =  -0.9999945759773254
//branch=down B_ext =  -0.45999999999999996   mz =  -0.9999946355819702
//branch=down B_ext =  -0.47   mz =  -0.9999947547912598
//branch=down B_ext =  -0.48   mz =  -0.9999950528144836
//branch=down B_ext =  -0.49   mz =  -0.9999951720237732
//branch=down B_ext =  -0.5   mz =  -0.999995231628418
//=== Step  9  of  10 : Ku1 =  600000  ===
//branch=up   B_ext =  -0.5   mz =  -0.9999947547912598
//branch=up   B_ext =  -0.49   mz =  -0.9999947547912598
//branch=up   B_ext =  -0.48   mz =  -0.9999945759773254
//branch=up   B_ext =  -0.47   mz =  -0.9999944567680359
//branch=up   B_ext =  -0.46   mz =  -0.9999943375587463
//branch=up   B_ext =  -0.45   mz =  -0.9999942779541016
//branch=up   B_ext =  -0.44   mz =  -0.9999940991401672
//branch=up   B_ext =  -0.43   mz =  -0.9999939203262329
//branch=up   B_ext =  -0.42   mz =  -0.9999936819076538
//branch=up   B_ext =  -0.41000000000000003   mz =  -0.9999935030937195
//branch=up   B_ext =  -0.4   mz =  -0.9999933242797852
//branch=up   B_ext =  -0.39   mz =  -0.9999929666519165
//branch=up   B_ext =  -0.38   mz =  -0.999992847442627
//branch=up   B_ext =  -0.37   mz =  -0.9999926090240479
//branch=up   B_ext =  -0.36   mz =  -0.9999924898147583
//branch=up   B_ext =  -0.35   mz =  -0.9999922513961792
//branch=up   B_ext =  -0.33999999999999997   mz =  -0.9999918937683105
//branch=up   B_ext =  -0.32999999999999996   mz =  -0.9999916553497314
//branch=up   B_ext =  -0.32   mz =  -0.9999914765357971
//branch=up   B_ext =  -0.31   mz =  -0.9999909996986389
//branch=up   B_ext =  -0.3   mz =  -0.9999907612800598
//branch=up   B_ext =  -0.29000000000000004   mz =  -0.9999904036521912
//branch=up   B_ext =  -0.28   mz =  -0.9999899864196777
//branch=up   B_ext =  -0.27   mz =  -0.9999896287918091
//branch=up   B_ext =  -0.26   mz =  -0.9999891519546509
//branch=up   B_ext =  -0.25   mz =  -0.9999887347221375
//branch=up   B_ext =  -0.24   mz =  -0.9999880790710449
//branch=up   B_ext =  -0.22999999999999998   mz =  -0.9999876022338867
//branch=up   B_ext =  -0.21999999999999997   mz =  -0.999987006187439
//branch=up   B_ext =  -0.21000000000000002   mz =  -0.9999862909317017
//branch=up   B_ext =  -0.2   mz =  -0.9999855160713196
//branch=up   B_ext =  -0.19   mz =  -0.9999847412109375
//branch=up   B_ext =  -0.18   mz =  -0.9999837875366211
//branch=up   B_ext =  -0.16999999999999998   mz =  -0.9999828338623047
//branch=up   B_ext =  -0.15999999999999998   mz =  -0.9999816417694092
//branch=up   B_ext =  -0.14999999999999997   mz =  -0.9999802708625793
//branch=up   B_ext =  -0.14   mz =  -0.9999788403511047
//branch=up   B_ext =  -0.13   mz =  -0.9999771118164062
//branch=up   B_ext =  -0.12   mz =  -0.9999751448631287
//branch=up   B_ext =  -0.10999999999999999   mz =  -0.9999728798866272
//branch=up   B_ext =  -0.09999999999999998   mz =  -0.9999699592590332
//branch=up   B_ext =  -0.08999999999999997   mz =  -0.9999665021896362
//branch=up   B_ext =  -0.08000000000000002   mz =  -0.9999622106552124
//branch=up   B_ext =  -0.07   mz =  -0.9999565482139587
//branch=up   B_ext =  -0.06   mz =  -0.9999490976333618
//branch=up   B_ext =  -0.04999999999999999   mz =  -0.9999384880065918
//branch=up   B_ext =  -0.03999999999999998   mz =  -0.9999227523803711
//branch=up   B_ext =  -0.02999999999999997   mz =  -0.9998969435691833
//branch=up   B_ext =  -0.020000000000000018   mz =  -0.9998486042022705
//branch=up   B_ext =  -0.010000000000000009   mz =  -0.9997371435165405
//branch=up   B_ext =  0   mz =  -0.9993810057640076
//branch=up   B_ext =  0.010000000000000009   mz =  -0.9986333847045898
//branch=up   B_ext =  0.020000000000000018   mz =  0.9329190254211426
//branch=up   B_ext =  0.030000000000000027   mz =  0.9998969435691833
//branch=up   B_ext =  0.040000000000000036   mz =  0.9999227523803711
//branch=up   B_ext =  0.050000000000000044   mz =  0.9999386072158813
//branch=up   B_ext =  0.06000000000000005   mz =  0.9999490976333618
//branch=up   B_ext =  0.07000000000000006   mz =  0.9999566078186035
//branch=up   B_ext =  0.07999999999999996   mz =  0.9999622106552124
//branch=up   B_ext =  0.08999999999999997   mz =  0.9999665021896362
//branch=up   B_ext =  0.09999999999999998   mz =  0.9999699592590332
//branch=up   B_ext =  0.10999999999999999   mz =  0.9999728202819824
//branch=up   B_ext =  0.12   mz =  0.9999751448631287
//branch=up   B_ext =  0.13   mz =  0.9999771118164062
//branch=up   B_ext =  0.14   mz =  0.99997878074646
//branch=up   B_ext =  0.15000000000000002   mz =  0.9999803900718689
//branch=up   B_ext =  0.16000000000000003   mz =  0.999981701374054
//branch=up   B_ext =  0.17000000000000004   mz =  0.9999828338623047
//branch=up   B_ext =  0.18000000000000005   mz =  0.9999837875366211
//branch=up   B_ext =  0.19000000000000006   mz =  0.9999847412109375
//branch=up   B_ext =  0.20000000000000007   mz =  0.9999855160713196
//branch=up   B_ext =  0.20999999999999996   mz =  0.9999862909317017
//branch=up   B_ext =  0.21999999999999997   mz =  0.9999869465827942
//branch=up   B_ext =  0.22999999999999998   mz =  0.9999875426292419
//branch=up   B_ext =  0.24   mz =  0.9999880790710449
//branch=up   B_ext =  0.25   mz =  0.9999886155128479
//branch=up   B_ext =  0.26   mz =  0.9999891519546509
//branch=up   B_ext =  0.27   mz =  0.9999896287918091
//branch=up   B_ext =  0.28   mz =  0.9999899864196777
//branch=up   B_ext =  0.29000000000000004   mz =  0.9999903440475464
//branch=up   B_ext =  0.30000000000000004   mz =  0.9999907612800598
//branch=up   B_ext =  0.31000000000000005   mz =  0.9999909996986389
//branch=up   B_ext =  0.32000000000000006   mz =  0.9999914169311523
//branch=up   B_ext =  0.33000000000000007   mz =  0.9999916553497314
//branch=up   B_ext =  0.33999999999999997   mz =  0.9999918937683105
//branch=up   B_ext =  0.35   mz =  0.9999922513961792
//branch=up   B_ext =  0.36   mz =  0.9999924898147583
//branch=up   B_ext =  0.37   mz =  0.9999927282333374
//branch=up   B_ext =  0.38   mz =  0.999992847442627
//branch=up   B_ext =  0.39   mz =  0.9999929666519165
//branch=up   B_ext =  0.4   mz =  0.9999933838844299
//branch=up   B_ext =  0.41000000000000003   mz =  0.9999935030937195
//branch=up   B_ext =  0.42000000000000004   mz =  0.999993622303009
//branch=up   B_ext =  0.43000000000000005   mz =  0.9999940395355225
//branch=up   B_ext =  0.44000000000000006   mz =  0.9999940395355225
//branch=up   B_ext =  0.45000000000000007   mz =  0.9999942183494568
//branch=up   B_ext =  0.45999999999999996   mz =  0.9999943971633911
//branch=up   B_ext =  0.47   mz =  0.9999944567680359
//branch=up   B_ext =  0.48   mz =  0.9999945759773254
//branch=up   B_ext =  0.49   mz =  0.9999947547912598
//branch=up   B_ext =  0.5   mz =  0.9999947547912598
//branch=down B_ext =  0.49   mz =  0.9999947547912598
//branch=down B_ext =  0.48   mz =  0.9999945759773254
//branch=down B_ext =  0.47   mz =  0.9999944567680359
//branch=down B_ext =  0.46   mz =  0.9999943971633911
//branch=down B_ext =  0.45   mz =  0.9999942183494568
//branch=down B_ext =  0.44   mz =  0.9999940395355225
//branch=down B_ext =  0.43   mz =  0.9999939203262329
//branch=down B_ext =  0.42   mz =  0.9999936819076538
//branch=down B_ext =  0.41000000000000003   mz =  0.9999934434890747
//branch=down B_ext =  0.4   mz =  0.9999933242797852
//branch=down B_ext =  0.39   mz =  0.9999929666519165
//branch=down B_ext =  0.38   mz =  0.999992847442627
//branch=down B_ext =  0.37   mz =  0.9999926686286926
//branch=down B_ext =  0.36   mz =  0.9999924898147583
//branch=down B_ext =  0.35   mz =  0.9999922513961792
//branch=down B_ext =  0.33999999999999997   mz =  0.9999918937683105
//branch=down B_ext =  0.32999999999999996   mz =  0.9999916553497314
//branch=down B_ext =  0.32   mz =  0.9999914765357971
//branch=down B_ext =  0.31   mz =  0.9999910593032837
//branch=down B_ext =  0.3   mz =  0.9999907612800598
//branch=down B_ext =  0.29000000000000004   mz =  0.9999903440475464
//branch=down B_ext =  0.28   mz =  0.9999899864196777
//branch=down B_ext =  0.27   mz =  0.9999896287918091
//branch=down B_ext =  0.26   mz =  0.9999890923500061
//branch=down B_ext =  0.25   mz =  0.9999887347221375
//branch=down B_ext =  0.24   mz =  0.9999880790710449
//branch=down B_ext =  0.22999999999999998   mz =  0.9999876022338867
//branch=down B_ext =  0.21999999999999997   mz =  0.9999869465827942
//branch=down B_ext =  0.21000000000000002   mz =  0.9999862909317017
//branch=down B_ext =  0.2   mz =  0.9999855160713196
//branch=down B_ext =  0.19   mz =  0.9999846816062927
//branch=down B_ext =  0.18   mz =  0.9999837279319763
//branch=down B_ext =  0.16999999999999998   mz =  0.9999827742576599
//branch=down B_ext =  0.15999999999999998   mz =  0.999981701374054
//branch=down B_ext =  0.14999999999999997   mz =  0.9999803304672241
//branch=down B_ext =  0.14   mz =  0.9999788999557495
//branch=down B_ext =  0.13   mz =  0.9999771118164062
//branch=down B_ext =  0.12   mz =  0.9999752044677734
//branch=down B_ext =  0.10999999999999999   mz =  0.9999728202819824
//branch=down B_ext =  0.09999999999999998   mz =  0.9999699592590332
//branch=down B_ext =  0.08999999999999997   mz =  0.9999665021896362
//branch=down B_ext =  0.08000000000000002   mz =  0.9999622106552124
//branch=down B_ext =  0.07   mz =  0.9999565482139587
//branch=down B_ext =  0.06   mz =  0.9999490976333618
//branch=down B_ext =  0.04999999999999999   mz =  0.9999386072158813
//branch=down B_ext =  0.03999999999999998   mz =  0.9999227523803711
//branch=down B_ext =  0.02999999999999997   mz =  0.9998969435691833
//branch=down B_ext =  0.020000000000000018   mz =  0.9998486042022705
//branch=down B_ext =  0.010000000000000009   mz =  0.9997372031211853
//branch=down B_ext =  0   mz =  0.9993790984153748
//branch=down B_ext =  -0.010000000000000009   mz =  0.9985958337783813
//branch=down B_ext =  -0.020000000000000018   mz =  -0.9329805374145508
//branch=down B_ext =  -0.030000000000000027   mz =  -0.9998969435691833
//branch=down B_ext =  -0.040000000000000036   mz =  -0.9999227523803711
//branch=down B_ext =  -0.050000000000000044   mz =  -0.9999384880065918
//branch=down B_ext =  -0.06000000000000005   mz =  -0.999949038028717
//branch=down B_ext =  -0.07000000000000006   mz =  -0.9999565482139587
//branch=down B_ext =  -0.07999999999999996   mz =  -0.9999622106552124
//branch=down B_ext =  -0.08999999999999997   mz =  -0.9999665021896362
//branch=down B_ext =  -0.09999999999999998   mz =  -0.9999699592590332
//branch=down B_ext =  -0.10999999999999999   mz =  -0.9999728202819824
//branch=down B_ext =  -0.12   mz =  -0.9999752044677734
//branch=down B_ext =  -0.13   mz =  -0.9999770522117615
//branch=down B_ext =  -0.14   mz =  -0.9999788999557495
//branch=down B_ext =  -0.15000000000000002   mz =  -0.9999802708625793
//branch=down B_ext =  -0.16000000000000003   mz =  -0.9999817609786987
//branch=down B_ext =  -0.17000000000000004   mz =  -0.9999827742576599
//branch=down B_ext =  -0.18000000000000005   mz =  -0.9999837875366211
//branch=down B_ext =  -0.19000000000000006   mz =  -0.9999847412109375
//branch=down B_ext =  -0.20000000000000007   mz =  -0.9999855160713196
//branch=down B_ext =  -0.20999999999999996   mz =  -0.9999862909317017
//branch=down B_ext =  -0.21999999999999997   mz =  -0.999987006187439
//branch=down B_ext =  -0.22999999999999998   mz =  -0.9999876022338867
//branch=down B_ext =  -0.24   mz =  -0.9999880790710449
//branch=down B_ext =  -0.25   mz =  -0.9999886751174927
//branch=down B_ext =  -0.26   mz =  -0.9999891519546509
//branch=down B_ext =  -0.27   mz =  -0.9999896287918091
//branch=down B_ext =  -0.28   mz =  -0.9999899864196777
//branch=down B_ext =  -0.29000000000000004   mz =  -0.9999903440475464
//branch=down B_ext =  -0.30000000000000004   mz =  -0.9999907612800598
//branch=down B_ext =  -0.31000000000000005   mz =  -0.9999909996986389
//branch=down B_ext =  -0.32000000000000006   mz =  -0.9999914765357971
//branch=down B_ext =  -0.33000000000000007   mz =  -0.9999916553497314
//branch=down B_ext =  -0.33999999999999997   mz =  -0.9999919533729553
//branch=down B_ext =  -0.35   mz =  -0.9999922513961792
//branch=down B_ext =  -0.36   mz =  -0.9999924898147583
//branch=down B_ext =  -0.37   mz =  -0.9999927282333374
//branch=down B_ext =  -0.38   mz =  -0.999992847442627
//branch=down B_ext =  -0.39   mz =  -0.9999929666519165
//branch=down B_ext =  -0.4   mz =  -0.9999933242797852
//branch=down B_ext =  -0.41000000000000003   mz =  -0.9999935030937195
//branch=down B_ext =  -0.42000000000000004   mz =  -0.9999936819076538
//branch=down B_ext =  -0.43000000000000005   mz =  -0.9999939203262329
//branch=down B_ext =  -0.44000000000000006   mz =  -0.9999940991401672
//branch=down B_ext =  -0.45000000000000007   mz =  -0.9999942183494568
//branch=down B_ext =  -0.45999999999999996   mz =  -0.9999943375587463
//branch=down B_ext =  -0.47   mz =  -0.9999944567680359
//branch=down B_ext =  -0.48   mz =  -0.9999945759773254
//branch=down B_ext =  -0.49   mz =  -0.9999947547912598
//branch=down B_ext =  -0.5   mz =  -0.9999948740005493
//********************************************************************//
//Please cite the following references, relevant for your simulation. //
//See bibtex file in output folder for justification.                 //
//********************************************************************//
//   * Vansteenkiste et al., AIP Adv. 4, 107133 (2014).
//   * Mulkers et al., Phys. Rev. B 95, 144401 (2017).
