# t (s)	mx ()	my ()	mz ()	B_extx (T)	B_exty (T)	B_extz (T)
0	-5.638867e-11	-5.502443e-11	-0.9999975	0	0	-0.5
0	-5.7298166e-11	-2.728484e-12	-0.9999974	0	0	-0.49
0	-6.139089e-11	-7.230483e-11	-0.9999974	0	0	-0.48
0	-7.3214323e-11	-4.9112714e-11	-0.9999972	0	0	-0.47
0	-5.7752914e-11	-6.04814e-11	-0.99999714	0	0	-0.46
0	-6.730261e-11	-7.230483e-11	-0.9999971	0	0	-0.45000002
0	-7.230483e-11	-7.8216544e-11	-0.99999696	0	0	-0.44000003
0	-5.7298166e-11	-8.594725e-11	-0.99999696	0	0	-0.43000004
0	-6.730261e-11	-1.05501385e-10	-0.9999968	0	0	-0.42000002
0	-8.458301e-11	-1.1368684e-10	-0.9999966	0	0	-0.41000003
0	-7.68523e-11	-1.0641088e-10	-0.9999965	0	0	-0.40000004
0	-1.1004886e-10	-5.684342e-11	-0.99999636	0	0	-0.39
0	-5.320544e-11	-8.913048e-11	-0.9999962	0	0	-0.38
0	-1.1004886e-10	-1.2596502e-10	-0.999996	0	0	-0.37
0	-1.02318154e-10	-9.094947e-11	-0.99999595	0	0	-0.36
0	-8.776624e-11	-7.048584e-11	-0.9999957	0	0	-0.34999996
0	-1.2278178e-10	-1.5279511e-10	-0.99999547	0	0	-0.33999997
0	-8.867573e-11	-1.1277734e-10	-0.9999953	0	0	-0.33
0	-1.6689228e-10	-7.2759576e-11	-0.9999951	0	0	-0.31999996
0	-9.231371e-11	-9.094947e-11	-0.99999475	0	0	-0.30999997
0	-1.373337e-10	-1.70985e-10	-0.99999446	0	0	-0.29999998
0	-1.891749e-10	-9.640644e-11	-0.9999942	0	0	-0.29
0	-1.15960574e-10	-1.6189006e-10	-0.9999938	0	0	-0.28
0	-1.2460077e-10	-2.3010216e-10	-0.99999344	0	0	-0.27
0	-2.1464075e-10	-2.2737368e-10	-0.9999929	0	0	-0.26
0	-3.0104275e-10	-1.891749e-10	-0.9999924	0	0	-0.25
0	-2.7921487e-10	-2.4374458e-10	-0.9999917	0	0	-0.24
0	-2.8785507e-10	-2.9467628e-10	-0.99999094	0	0	-0.23
0	-2.7830538e-10	-2.4738256e-10	-0.9999901	0	0	-0.22000001
0	-4.2018655e-10	-3.783498e-10	-0.9999889	0	0	-0.21000001
0	-4.0654413e-10	-1.70985e-10	-0.9999875	0	0	-0.20000002
0	-4.647518e-10	-7.858034e-10	-0.9999854	0	0	-0.19
0	-7.858034e-10	-6.0754246e-10	-0.9999825	0	0	-0.18
0	-1.976332e-09	-3.4197e-10	-0.9999774	0	0	-0.16999999
0	-6.5019776e-09	-3.5724952e-09	-0.99996567	0	0	-0.15999998
0	-6.6463117e-06	-2.5872432e-06	-0.9999078	0	0	-0.14999999
0	-1.1515758e-05	-4.4816625e-06	-0.99985677	0	0	-0.14
0	-1.5580725e-05	-6.063434e-06	-0.9998024	0	0	-0.13
0	-2.3141802e-05	-9.005933e-06	-0.9996802	0	0	-0.12
0	-0.005239358	-0.0020382423	-0.8263571	0	0	-0.11000001
0	-0.011391914	-0.004403351	-0.7641248	0	0	-0.10000001
0	-0.020200541	-0.0076187467	-0.6996926	0	0	-0.09
0	-0.0005236869	0.0014492953	-0.5665672	0	0	-0.07999999
0	-0.00039563933	0.0010932464	-0.5020535	0	0	-0.07
0	-0.00030859467	0.0008523391	-0.43631718	0	0	-0.06
0	-0.00023972057	0.00066248124	-0.36936077	0	0	-0.050000004
0	-0.00018948223	0.0005230757	-0.30115682	0	0	-0.039999995
0	-0.00014942698	0.0004115219	-0.23166014	0	0	-0.03
0	-0.000114755705	0.00031498531	-0.16080685	0	0	-0.019999998
0	-8.91462e-05	0.00024387176	-0.088426046	0	0	-0.009999999
0	-5.8011152e-05	0.00015883255	-0.012688018	0	0	0
0	-4.1255727e-05	0.00011190286	0.07216189	0	0	0.009999999
0	-3.3178832e-05	8.9446316e-05	0.1446358	0	0	0.019999998
0	-2.7341768e-05	7.34136e-05	0.2156503	0	0	0.03
0	-2.28493e-05	6.110108e-05	0.2853789	0	0	0.039999995
0	-1.9493513e-05	5.197391e-05	0.35388964	0	0	0.050000004
0	-1.675263e-05	4.455974e-05	0.42123535	0	0	0.06
0	-1.4473917e-05	3.844584e-05	0.4874537	0	0	0.07
0	-1.2528151e-05	3.3193355e-05	0.55255896	0	0	0.07999999
0	-1.0811258e-05	2.8598588e-05	0.61653537	0	0	0.09
0	-9.315088e-06	2.4612236e-05	0.67934096	0	0	0.10000001
0	-7.897615e-06	2.0882013e-05	0.7410287	0	0	0.11000001
0	-2.9925723e-06	8.835443e-06	0.8103894	0	0	0.12
0	-1.7378479e-06	5.3036783e-06	0.86636186	0	0	0.13
0	-8.849893e-07	2.884699e-06	0.91903925	0	0	0.14
0	-3.244495e-07	1.3328463e-06	0.96697766	0	0	0.14999999
0	1.8373612e-08	4.575122e-08	0.99996567	0	0	0.15999998
0	2.577508e-09	2.4883775e-09	0.9999774	0	0	0.16999999
0	1.1768861e-09	3.4197e-10	0.9999825	0	0	0.18
0	5.456968e-10	5.638867e-10	0.9999854	0	0	0.19
0	2.7921487e-10	1.6007107e-10	0.9999875	0	0	0.20000002
0	4.820322e-10	3.3287506e-10	0.9999889	0	0	0.21000001
0	2.9740477e-10	2.3283064e-10	0.9999901	0	0	0.22000001
0	4.0836312e-10	2.5283953e-10	0.99999094	0	0	0.23
0	2.6011548e-10	3.4197e-10	0.9999917	0	0	0.24
0	2.5465852e-10	4.7293724e-11	0.9999924	0	0	0.25
0	1.8007995e-10	1.1641532e-10	0.9999929	0	0	0.26
0	1.15960574e-10	1.05501385e-10	0.99999344	0	0	0.27
0	1.459739e-10	1.4551915e-10	0.9999938	0	0	0.28
0	1.6780177e-10	7.2759576e-11	0.9999943	0	0	0.29
0	1.3551471e-10	8.367351e-11	0.99999446	0	0	0.29999998
0	1.114131e-10	5.820766e-11	0.99999475	0	0	0.30999997
0	1.3687895e-10	3.45608e-11	0.999995	0	0	0.31999996
0	1.00499165e-10	6.002665e-11	0.9999953	0	0	0.33
0	1.2141754e-10	1.03682396e-10	0.99999547	0	0	0.33999997
0	9.822543e-11	4.5474735e-12	0.9999958	0	0	0.34999996
0	8.367351e-11	4.274625e-11	0.99999595	0	0	0.36
0	1.1505108e-10	9.8680175e-11	0.999996	0	0	0.37
0	6.184564e-11	6.866685e-11	0.9999962	0	0	0.38
0	9.458745e-11	4.8657967e-11	0.99999636	0	0	0.39
0	9.41327e-11	8.1399776e-11	0.9999965	0	0	0.40000004
0	7.867129e-11	5.3660187e-11	0.9999966	0	0	0.41000003
0	5.5933924e-11	5.5479177e-11	0.9999968	0	0	0.42000002
0	5.1841198e-11	5.0931703e-11	0.99999696	0	0	0.43000004
0	5.9117156e-11	4.7293724e-11	0.999997	0	0	0.44000003
0	5.4114935e-11	6.002665e-11	0.99999714	0	0	0.45000002
0	6.320988e-11	6.548362e-11	0.99999714	0	0	0.46
0	5.820766e-11	7.116796e-11	0.99999726	0	0	0.47
0	6.502887e-11	6.548362e-11	0.9999974	0	0	0.48
0	7.003109e-11	2.3192115e-11	0.9999974	0	0	0.49
0	3.9108272e-11	5.070433e-11	0.99999744	0	0	0.5
0	6.184564e-11	9.094947e-12	0.9999974	0	0	0.49
0	5.684342e-11	6.91216e-11	0.9999974	0	0	0.48
0	6.04814e-11	7.594281e-11	0.99999726	0	0	0.47
0	6.4119376e-11	4.3655746e-11	0.99999714	0	0	0.46
0	5.684342e-11	7.003109e-11	0.99999714	0	0	0.45000002
0	6.366463e-11	6.184564e-11	0.999997	0	0	0.44000003
0	5.684342e-11	7.4578566e-11	0.99999696	0	0	0.43000004
0	5.820766e-11	7.4578566e-11	0.9999968	0	0	0.42000002
0	7.094059e-11	1.09139364e-10	0.99999666	0	0	0.41000003
0	8.185452e-11	8.094503e-11	0.9999965	0	0	0.40000004
0	1.0822987e-10	6.866685e-11	0.99999636	0	0	0.39
0	5.3660187e-11	4.5019988e-11	0.9999962	0	0	0.38
0	9.5496944e-11	5.0476956e-11	0.999996	0	0	0.37
0	7.2759576e-11	4.5474735e-11	0.99999595	0	0	0.36
0	7.912604e-11	3.45608e-11	0.9999958	0	0	0.34999996
0	1.2414603e-10	1.4188117e-10	0.9999955	0	0	0.33999997
0	9.595169e-11	1.0095391e-10	0.99999523	0	0	0.33
0	1.4279067e-10	3.092282e-11	0.999995	0	0	0.31999996
0	8.458301e-11	4.0017767e-11	0.9999948	0	0	0.30999997
0	1.0822987e-10	1.8644641e-10	0.99999446	0	0	0.29999998
0	1.7007551e-10	6.184564e-11	0.9999943	0	0	0.29
0	1.10503606e-10	1.8007995e-10	0.9999938	0	0	0.28
0	1.12322596e-10	1.6552804e-10	0.99999344	0	0	0.27
0	2.055458e-10	1.5825208e-10	0.9999929	0	0	0.26
0	2.59206e-10	1.382432e-10	0.9999924	0	0	0.25
0	2.901288e-10	2.4738256e-10	0.9999917	0	0	0.24
0	3.351488e-10	3.7471182e-10	0.99999094	0	0	0.23
0	3.0104275e-10	1.7462298e-10	0.9999901	0	0	0.22000001
0	4.456524e-10	3.092282e-10	0.9999889	0	0	0.21000001
0	2.6830094e-10	2.4738256e-10	0.9999875	0	0	0.20000002
0	5.466063e-10	3.3833203e-10	0.9999854	0	0	0.19
0	8.6311047e-10	7.421477e-10	0.9999825	0	0	0.18
0	1.8007995e-09	3.1286618e-10	0.99997735	0	0	0.16999999
0	6.3382686e-09	3.1650416e-09	0.99996567	0	0	0.15999998
0	7.661766e-06	2.9614312e-06	0.9999078	0	0	0.14999999
0	1.33572175e-05	5.1622446e-06	0.9998563	0	0	0.14
0	1.784952e-05	6.8979425e-06	0.99980426	0	0	0.13
0	2.6186139e-05	1.0118689e-05	0.99968773	0	0	0.12
0	0.005951115	0.0022989782	0.82637095	0	0	0.11000001
0	0.012979309	0.00500088	0.76411206	0	0	0.10000001
0	0.023880199	0.009096305	0.6994922	0	0	0.09
0	0.0005981596	-0.0017300245	0.5665672	0	0	0.07999999
0	0.00042557018	-0.0012327855	0.50205314	0	0	0.07
0	0.00033131056	-0.00095796364	0.4363171	0	0	0.06
0	0.00025915913	-0.0007486717	0.36936063	0	0	0.050000004
0	0.00020318199	-0.00058653037	0.30115676	0	0	0.039999995
0	0.00016029365	-0.00046171347	0.23166017	0	0	0.03
0	0.00012468826	-0.00035774428	0.16080686	0	0	0.019999998
0	9.5129944e-05	-0.00027204357	0.08842598	0	0	0.009999999
0	6.178394e-05	-0.00017679483	0.0126880305	0	0	0
0	4.4371e-05	-0.00012579831	-0.07216187	0	0	-0.009999999
0	3.56948e-05	-0.00010075758	-0.14463578	0	0	-0.019999998
0	2.925098e-05	-8.22733e-05	-0.21565038	0	0	-0.03
0	2.4531968e-05	-6.876586e-05	-0.28537884	0	0	-0.039999995
0	2.0937994e-05	-5.8584177e-05	-0.35388964	0	0	-0.050000004
0	1.8022489e-05	-5.0352624e-05	-0.42123535	0	0	-0.06
0	1.5577534e-05	-4.3491164e-05	-0.48745352	0	0	-0.07
0	1.34916045e-05	-3.7577993e-05	-0.5525589	0	0	-0.07999999
0	1.1667609e-05	-3.245432e-05	-0.61653525	0	0	-0.09
0	1.0044314e-05	-2.7921313e-05	-0.6793411	0	0	-0.10000001
0	8.550473e-06	-2.3768109e-05	-0.7410285	0	0	-0.11000001
0	3.2726675e-06	-1.0202668e-05	-0.8103894	0	0	-0.12
0	1.9203871e-06	-6.1519095e-06	-0.8663615	0	0	-0.13
0	9.766081e-07	-3.3825054e-06	-0.91903764	0	0	-0.14
0	3.79805e-07	-1.596618e-06	-0.96697116	0	0	-0.14999999
0	-1.6690137e-08	-5.6512363e-08	-0.99996567	0	0	-0.15999998
0	-2.487468e-09	-3.3869583e-09	-0.99997735	0	0	-0.16999999
0	-1.2514647e-09	-3.7107384e-10	-0.9999825	0	0	-0.18
0	-4.956746e-10	-3.5652192e-10	-0.9999854	0	0	-0.19
0	-2.7193892e-10	-1.72804e-10	-0.9999875	0	0	-0.20000002
0	-4.5656634e-10	-1.5643309e-10	-0.999989	0	0	-0.21000001
0	-2.901288e-10	-2.0372681e-10	-0.9999901	0	0	-0.22000001
0	-4.042704e-10	-2.8740033e-10	-0.99999094	0	0	-0.23
0	-2.496563e-10	-2.8740033e-10	-0.9999918	0	0	-0.24
0	-2.6648195e-10	-1.5279511e-10	-0.9999924	0	0	-0.25
0	-2.1327651e-10	-1.882654e-10	-0.9999929	0	0	-0.26
0	-1.0822987e-10	-2.228262e-10	-0.99999344	0	0	-0.27
0	-1.3142198e-10	-1.4370016e-10	-0.9999938	0	0	-0.28
0	-1.5324986e-10	-6.91216e-11	-0.9999943	0	0	-0.29
0	-1.3096724e-10	-8.0035534e-11	-0.99999446	0	0	-0.29999998
0	-9.731593e-11	-2.5465852e-11	-0.99999475	0	0	-0.30999997
0	-1.3460522e-10	-8.913048e-11	-0.9999951	0	0	-0.31999996
0	-9.731593e-11	-1.0004442e-10	-0.9999953	0	0	-0.33
0	-1.2505552e-10	-1.0459189e-10	-0.9999955	0	0	-0.33999997
0	-8.185452e-11	-4.820322e-11	-0.9999958	0	0	-0.34999996
0	-8.1399776e-11	-9.1858965e-11	-0.99999595	0	0	-0.36
0	-9.640644e-11	-9.276846e-11	-0.999996	0	0	-0.37
0	-6.002665e-11	-6.04814e-11	-0.9999962	0	0	-0.38
0	-1.05501385e-10	-8.230927e-11	-0.99999636	0	0	-0.39
0	-9.5496944e-11	-5.820766e-11	-0.9999965	0	0	-0.40000004
0	-7.8216544e-11	-2.728484e-12	-0.9999966	0	0	-0.41000003
0	-6.5938366e-11	-5.5479177e-11	-0.9999968	0	0	-0.42000002
0	-6.4119376e-11	-7.6397555e-11	-0.99999696	0	0	-0.43000004
0	-5.502443e-11	-4.7293724e-11	-0.99999696	0	0	-0.44000003
0	-5.95719e-11	-2.5011104e-11	-0.99999714	0	0	-0.45000002
0	-6.866685e-11	-6.3892e-11	-0.99999714	0	0	-0.46
0	-6.184564e-11	-7.162271e-11	-0.99999726	0	0	-0.47
0	-6.502887e-11	-7.503331e-11	-0.9999974	0	0	-0.48
0	-6.548362e-11	-2.4328983e-11	-0.9999974	0	0	-0.49
0	-4.456524e-11	-5.502443e-11	-0.99999744	0	0	-0.5
