//mumax 3.12 [windows_amd64 go1.26.0(gc) CUDA-12.9]
//commit hash: 6e5c98bb
//CPU info: Unknown, Error: exec: "wmic": executable file not found in %PATH%
//GPU info: NVIDIA GeForce RTX 5070 Ti(16302MB), CUDA Driver 13.1, cc=12.0, using cc=120 PTX
//OS  info: Windows OS, Hostname: nachjs-pc1
//Timestamp: 2026-07-08 15:28:54
//(c) Arne Vansteenkiste, Dynamat LAB, Ghent University, Belgium
//This is free software without any warranty. See license.txt
//********************************************************************//
//  If you use mumax in any work or publication,                      //
//  we kindly ask you to cite the references in references.bib        //
//********************************************************************//
//output directory: CoFeB_VCMA_Bext_initialRelax.out/
SetGridsize(64, 64, 1)
SetCellsize(3e-9, 3e-9, 1.5e-9)
Msat = 1.0e6
Aex = 15e-12
alpha = 0.02
anisU = vector(0, 0, 1)
Dind = 0.06e-3
TableAdd(Ku1)
TableAdd(m)
TableAdd(MaxTorque)
N_ku1 := 20
Ku1_lo := 0.5e6
Ku1_hi := 0.73e6
N_B := 10
B_lo := 0.08
B_step := 0.02
for i := 0; i < N_ku1; i++ {
	Ku1 = Ku1_lo + (Ku1_hi-Ku1_lo)*i/(N_ku1-1)
	for j := 0; j < N_B; j++ {
		B_ext = vector(0, 0, B_lo+B_step*j)
		Minimize()
		TableSave()
		SaveAs(m, sprintf("Ku1_%03d_B_%03d", i, j))
		Print("Ku1=", Ku1, " B=", B_lo+B_step*j, " mz=", m.average())
	}
}
//Ku1= 500000  B= 0.08  mz= [0.005157902836799622 0.800067663192749 0.4046052098274231]
//Ku1= 500000  B= 0.1  mz= [0.005179941654205322 0.7683078646659851 0.5010412335395813]
//Ku1= 500000  B= 0.12  mz= [0.005593772977590561 0.7282184362411499 0.5953330993652344]
//Ku1= 500000  B= 0.14  mz= [0.009639296680688858 0.6784757375717163 0.6871556043624878]
//Ku1= 500000  B= 0.16  mz= [0.43509188294410706 0.43756818771362305 0.7697453498840332]
//Ku1= 500000  B= 0.18  mz= [0.3530065417289734 0.3548054099082947 0.8528869152069092]
//Ku1= 500000  B= 0.2  mz= [0.2460201233625412 0.24732735753059387 0.9286710619926453]
//Ku1= 500000  B= 0.22000000000000003  mz= [0.0842786580324173 0.08477525413036346 0.9910296201705933]
//Ku1= 500000  B= 0.24  mz= [-4.441038618097082e-05 -4.468637052923441e-05 0.9999226927757263]
//Ku1= 500000  B= 0.26  mz= [-2.8252889023860916e-06 -2.8475187718868256e-06 0.9999490976333618]
//Ku1= 512105.25  B= 0.08  mz= [-0.6121006011962891 -0.6123142838478088 0.4556359648704529]
//Ku1= 512105.25  B= 0.1  mz= [-0.5683311223983765 -0.568462610244751 0.5615950226783752]
//Ku1= 512105.25  B= 0.12  mz= [-0.5125070214271545 -0.5125892758369446 0.6639924645423889]
//Ku1= 512105.25  B= 0.14  mz= [-0.4418327808380127 -0.4419020116329193 0.76204514503479]
//Ku1= 512105.25  B= 0.16  mz= [-0.3514251410961151 -0.35149115324020386 0.8541070222854614]
//Ku1= 512105.25  B= 0.18  mz= [-0.2315099835395813 -0.23158001899719238 0.9365488886833191]
//Ku1= 512105.25  B= 0.2  mz= [-0.0007319856085814536 -0.0007327609928324819 0.9998725652694702]
//Ku1= 512105.25  B= 0.22000000000000003  mz= [-1.781902574293781e-05 -1.784414052963257e-05 0.999930202960968]
//Ku1= 512105.25  B= 0.24  mz= [-1.4685520000057295e-06 -1.4732941053807735e-06 0.9999525547027588]
//Ku1= 512105.25  B= 0.26  mz= [-4.0490704122930765e-08 -4.2462488636374474e-08 0.99996417760849]
//Ku1= 524210.53125  B= 0.08  mz= [-0.0002208799123764038 2.6496127247810364e-07 0.5507045388221741]
//Ku1= 524210.53125  B= 0.1  mz= [-0.00015145540237426758 -4.627509042620659e-08 0.6665531396865845]
//Ku1= 524210.53125  B= 0.12  mz= [-0.00011176615953445435 3.0675437301397324e-06 0.7771245837211609]
//Ku1= 524210.53125  B= 0.14  mz= [-9.293854236602783e-05 6.289919838309288e-07 0.8816527724266052]
//Ku1= 524210.53125  B= 0.16  mz= [-0.30083397030830383 0.007538476027548313 0.9454683065414429]
//Ku1= 524210.53125  B= 0.18  mz= [-0.00011087976599810645 2.70036980509758e-06 0.9998912811279297]
//Ku1= 524210.53125  B= 0.2  mz= [-1.4548204489983618e-05 3.498862497508526e-07 0.9999364614486694]
//Ku1= 524210.53125  B= 0.22000000000000003  mz= [-4.717312549473718e-07 9.66247171163559e-09 0.9999555349349976]
//Ku1= 524210.53125  B= 0.24  mz= [-1.0410076356492937e-08 -2.3283064365386963e-10 0.9999659657478333]
//Ku1= 524210.53125  B= 0.26  mz= [7.403286872431636e-10 -1.1641532182693481e-10 0.999972403049469]
//Ku1= 536315.8125  B= 0.08  mz= [0.00017887353897094727 -0.0001920207287184894 0.638785183429718]
//Ku1= 536315.8125  B= 0.1  mz= [0.00013180077075958252 -0.000141298514790833 0.7670823335647583]
//Ku1= 536315.8125  B= 0.12  mz= [0.0001675933599472046 -0.0001300848089158535 0.8872148990631104]
//Ku1= 536315.8125  B= 0.14  mz= [0.26781588792800903 -0.008450436405837536 0.9562178254127502]
//Ku1= 536315.8125  B= 0.16  mz= [7.030439155641943e-05 -2.1711457520723343e-06 0.9999051094055176]
//Ku1= 536315.8125  B= 0.18  mz= [4.390811227494851e-06 -1.3748649507761002e-07 0.9999417066574097]
//Ku1= 536315.8125  B= 0.2  mz= [2.225751813966781e-07 -8.09086486697197e-09 0.9999581575393677]
//Ku1= 536315.8125  B= 0.22000000000000003  mz= [4.854882718063891e-09 -3.2014213502407074e-10 0.9999674558639526]
//Ku1= 536315.8125  B= 0.24  mz= [7.439666660502553e-10 -5.820766091346741e-10 0.9999735355377197]
//Ku1= 536315.8125  B= 0.26  mz= [3.4924596548080444e-10 -4.656612873077393e-10 0.9999776482582092]
//Ku1= 548421.0625  B= 0.08  mz= [-0.47125253081321716 0.4679110646247864 0.7207077145576477]
//Ku1= 548421.0625  B= 0.1  mz= [-0.3444030284881592 0.3419518768787384 0.8572735786437988]
//Ku1= 548421.0625  B= 0.12  mz= [-0.1568981409072876 0.15568609535694122 0.9698354005813599]
//Ku1= 548421.0625  B= 0.14  mz= [-5.173793397261761e-06 5.14322891831398e-06 0.9999160766601562]
//Ku1= 548421.0625  B= 0.16  mz= [-3.9312908484134823e-07 3.9138831198215485e-07 0.999946117401123]
//Ku1= 548421.0625  B= 0.18  mz= [-2.622618922032416e-08 2.7008354663848877e-08 0.9999605417251587]
//Ku1= 548421.0625  B= 0.2  mz= [-5.020410753786564e-10 1.0477378964424133e-09 0.9999690055847168]
//Ku1= 548421.0625  B= 0.22000000000000003  mz= [4.5656634029001e-10 -4.3655745685100555e-10 0.9999744892120361]
//Ku1= 548421.0625  B= 0.24  mz= [3.838067641481757e-10 -3.2014213502407074e-10 0.9999784231185913]
//Ku1= 548421.0625  B= 0.26  mz= [2.6193447411060333e-10 -1.7462298274040222e-10 0.9999812245368958]
//Ku1= 560526.3125  B= 0.08  mz= [1.280452124774456e-06 -9.457580745220184e-07 0.9994305968284607]
//Ku1= 560526.3125  B= 0.1  mz= [1.7589500203030184e-06 -1.3043172657489777e-06 0.9998552203178406]
//Ku1= 560526.3125  B= 0.12  mz= [3.3951255318243057e-07 -2.5151530280709267e-07 0.9999247193336487]
//Ku1= 560526.3125  B= 0.14  mz= [2.6138877728953958e-08 -1.9266735762357712e-08 0.9999499917030334]
//Ku1= 560526.3125  B= 0.16  mz= [2.992237568832934e-09 -2.2118911147117615e-09 0.9999626278877258]
//Ku1= 560526.3125  B= 0.18  mz= [9.64064383879304e-10 -5.820766091346741e-10 0.9999701976776123]
//Ku1= 560526.3125  B= 0.2  mz= [5.620677256956697e-10 -2.3283064365386963e-10 0.9999753832817078]
//Ku1= 560526.3125  B= 0.22000000000000003  mz= [3.9108272176235914e-10 -1.1641532182693481e-10 0.9999790787696838]
//Ku1= 560526.3125  B= 0.24  mz= [2.0372681319713593e-10 -2.6193447411060333e-10 0.9999818801879883]
//Ku1= 560526.3125  B= 0.26  mz= [2.637534635141492e-10 -1.1641532182693481e-10 0.9999839067459106]
//Ku1= 572631.5625  B= 0.08  mz= [1.588705345056951e-08 -9.42964106798172e-09 0.9998782873153687]
//Ku1= 572631.5625  B= 0.1  mz= [6.732079782523215e-09 -5.413312464952469e-09 0.9999319314956665]
//Ku1= 572631.5625  B= 0.12  mz= [2.331944415345788e-09 -1.4551915228366852e-09 0.9999533295631409]
//Ku1= 572631.5625  B= 0.14  mz= [1.2078089639544487e-09 -8.440110832452774e-10 0.9999645948410034]
//Ku1= 572631.5625  B= 0.16  mz= [8.87666828930378e-10 -8.731149137020111e-11 0.9999715089797974]
//Ku1= 572631.5625  B= 0.18  mz= [5.129550117999315e-10 -4.656612873077393e-10 0.9999763369560242]
//Ku1= 572631.5625  B= 0.2  mz= [4.2382453102618456e-10 -1.7462298274040222e-10 0.9999797344207764]
//Ku1= 572631.5625  B= 0.22000000000000003  mz= [2.3646862246096134e-10 -2.0372681319713593e-10 0.9999822378158569]
//Ku1= 572631.5625  B= 0.24  mz= [2.0372681319713593e-10 -2.9103830456733704e-11 0.9999843835830688]
//Ku1= 572631.5625  B= 0.26  mz= [1.8189894035458565e-10 5.820766091346741e-11 0.999985933303833]
//Ku1= 584736.8125  B= 0.08  mz= [2.9722286853939295e-09 -1.6298145055770874e-09 0.999937891960144]
//Ku1= 584736.8125  B= 0.1  mz= [1.8153514247387648e-09 -1.3969838619232178e-09 0.9999562501907349]
//Ku1= 584736.8125  B= 0.12  mz= [1.0913936421275139e-09 -7.275957614183426e-10 0.9999662637710571]
//Ku1= 584736.8125  B= 0.14  mz= [7.785274647176266e-10 -6.111804395914078e-10 0.9999725818634033]
//Ku1= 584736.8125  B= 0.16  mz= [4.1109160520136356e-10 -4.656612873077393e-10 0.9999770522117615]
//Ku1= 584736.8125  B= 0.18  mz= [3.2741809263825417e-10 -2.3283064365386963e-10 0.9999802112579346]
//Ku1= 584736.8125  B= 0.2  mz= [2.2373569663614035e-10 -1.7462298274040222e-10 0.9999827742576599]
//Ku1= 584736.8125  B= 0.22000000000000003  mz= [1.5552359400317073e-10 -1.4551915228366852e-10 0.999984622001648]
//Ku1= 584736.8125  B= 0.24  mz= [1.5370460459962487e-10 -1.4551915228366852e-10 0.9999862909317017]
//Ku1= 584736.8125  B= 0.26  mz= [3.2741809263825417e-11 -1.4551915228366852e-10 0.9999875426292419]
//Ku1= 596842.0625  B= 0.08  mz= [1.5133991837501526e-09 -1.0477378964424133e-09 0.999958872795105]
//Ku1= 596842.0625  B= 0.1  mz= [8.039933163672686e-10 -5.238689482212067e-10 0.9999678134918213]
//Ku1= 596842.0625  B= 0.12  mz= [6.657501216977835e-10 -2.9103830456733704e-10 0.9999737739562988]
//Ku1= 596842.0625  B= 0.14  mz= [4.3655745685100555e-10 -2.9103830456733704e-10 0.9999777674674988]
//Ku1= 596842.0625  B= 0.16  mz= [2.673914423212409e-10 -1.8917489796876907e-10 0.9999808669090271]
//Ku1= 596842.0625  B= 0.18  mz= [1.9826984498649836e-10 -1.7462298274040222e-10 0.9999831914901733]
//Ku1= 596842.0625  B= 0.2  mz= [1.6825651982799172e-10 -1.0186340659856796e-10 0.9999849796295166]
//Ku1= 596842.0625  B= 0.22000000000000003  mz= [2.2373569663614035e-10 -1.6007106751203537e-10 0.999986469745636]
//Ku1= 596842.0625  B= 0.24  mz= [1.77351466845721e-10 -1.1641532182693481e-10 0.9999877214431763]
//Ku1= 596842.0625  B= 0.26  mz= [1.6916601452976465e-10 -2.9103830456733704e-11 0.9999887943267822]
//Ku1= 608947.4375  B= 0.08  mz= [8.312781574204564e-10 -2.9103830456733704e-10 0.9999693036079407]
//Ku1= 608947.4375  B= 0.1  mz= [7.09405867382884e-10 -4.656612873077393e-10 0.9999746680259705]
//Ku1= 608947.4375  B= 0.12  mz= [3.637978807091713e-10 -4.656612873077393e-10 0.9999784827232361]
//Ku1= 608947.4375  B= 0.14  mz= [3.474269760772586e-10 1.4551915228366852e-11 0.9999813437461853]
//Ku1= 608947.4375  B= 0.16  mz= [2.0190782379359007e-10 -1.1641532182693481e-10 0.999983549118042]
//Ku1= 608947.4375  B= 0.18  mz= [1.6279955161735415e-10 -4.3655745685100555e-11 0.9999854564666748]
//Ku1= 608947.4375  B= 0.2  mz= [9.185896487906575e-11 -1.0186340659856796e-10 0.9999868273735046]
//Ku1= 608947.4375  B= 0.22000000000000003  mz= [1.737134880386293e-10 -1.2369127944111824e-10 0.9999879598617554]
//Ku1= 608947.4375  B= 0.24  mz= [1.382431946694851e-10 -1.4551915228366852e-11 0.9999890327453613]
//Ku1= 608947.4375  B= 0.26  mz= [1.1004885891452432e-10 -8.003553375601768e-11 0.999989926815033]
//Ku1= 621052.5625  B= 0.08  mz= [4.4019543565809727e-10 -2.9103830456733704e-10 0.9999756813049316]
//Ku1= 621052.5625  B= 0.1  mz= [3.4015101846307516e-10 -2.3283064365386963e-10 0.9999791383743286]
//Ku1= 621052.5625  B= 0.12  mz= [2.874003257602453e-10 -8.731149137020111e-11 0.9999818801879883]
//Ku1= 621052.5625  B= 0.14  mz= [1.6007106751203537e-10 0 0.999984085559845]
//Ku1= 621052.5625  B= 0.16  mz= [1.509761204943061e-10 -1.6007106751203537e-10 0.9999856948852539]
//Ku1= 621052.5625  B= 0.18  mz= [1.3096723705530167e-10 0 0.9999871253967285]
//Ku1= 621052.5625  B= 0.2  mz= [1.8553691916167736e-10 0 0.9999881982803345]
//Ku1= 621052.5625  B= 0.22000000000000003  mz= [1.255102688446641e-10 -1.0186340659856796e-10 0.9999891519546509]
//Ku1= 621052.5625  B= 0.24  mz= [1.355147105641663e-10 -1.3096723705530167e-10 0.9999901056289673]
//Ku1= 621052.5625  B= 0.26  mz= [9.913492249324918e-11 1.4551915228366852e-11 0.9999908208847046]
//Ku1= 633157.9375  B= 0.08  mz= [3.8744474295526743e-10 -2.3283064365386963e-10 0.9999798536300659]
//Ku1= 633157.9375  B= 0.1  mz= [2.0372681319713593e-10 -8.731149137020111e-11 0.9999823570251465]
//Ku1= 633157.9375  B= 0.12  mz= [1.8189894035458565e-10 -1.8917489796876907e-10 0.9999843835830688]
//Ku1= 633157.9375  B= 0.14  mz= [1.446096575818956e-10 -2.9103830456733704e-11 0.9999861121177673]
//Ku1= 633157.9375  B= 0.16  mz= [8.003553375601768e-11 -8.731149137020111e-11 0.9999873042106628]
//Ku1= 633157.9375  B= 0.18  mz= [2.4283508537337184e-10 -7.275957614183426e-12 0.9999884366989136]
//Ku1= 633157.9375  B= 0.2  mz= [1.1368683772161603e-10 -1.1641532182693481e-10 0.99998939037323]
//Ku1= 633157.9375  B= 0.22000000000000003  mz= [1.2460077414289117e-10 5.093170329928398e-11 0.9999902844429016]
//Ku1= 633157.9375  B= 0.24  mz= [1.0913936421275139e-10 -2.9103830456733704e-11 0.9999909996986389]
//Ku1= 633157.9375  B= 0.26  mz= [1.0550138540565968e-10 -5.820766091346741e-11 0.9999916553497314]
//Ku1= 645263.1875  B= 0.08  mz= [2.0736479200422764e-10 -3.4924596548080444e-10 0.9999828338623047]
//Ku1= 645263.1875  B= 0.1  mz= [2.0736479200422764e-10 -1.1641532182693481e-10 0.9999847412109375]
//Ku1= 645263.1875  B= 0.12  mz= [1.546140993013978e-10 -2.6193447411060333e-10 0.9999862909317017]
//Ku1= 645263.1875  B= 0.14  mz= [1.7462298274040222e-10 0 0.9999876618385315]
//Ku1= 645263.1875  B= 0.16  mz= [1.5370460459962487e-10 -2.9103830456733704e-11 0.9999887347221375]
//Ku1= 645263.1875  B= 0.18  mz= [1.5006662579253316e-10 -5.820766091346741e-11 0.9999896287918091]
//Ku1= 645263.1875  B= 0.2  mz= [1.6552803572267294e-10 -7.275957614183426e-12 0.9999904036521912]
//Ku1= 645263.1875  B= 0.22000000000000003  mz= [3.001332515850663e-11 1.4551915228366852e-11 0.9999910593032837]
//Ku1= 645263.1875  B= 0.24  mz= [1.0368239600211382e-10 -2.1827872842550278e-11 0.9999916553497314]
//Ku1= 645263.1875  B= 0.26  mz= [9.640643838793039e-11 7.275957614183426e-12 0.9999922513961792]
//Ku1= 657368.4375  B= 0.08  mz= [1.3460521586239338e-10 -5.820766091346741e-11 0.9999851584434509]
//Ku1= 657368.4375  B= 0.1  mz= [1.9917933968827128e-10 -2.0372681319713593e-10 0.9999865889549255]
//Ku1= 657368.4375  B= 0.12  mz= [1.2096279533579946e-10 4.3655745685100555e-11 0.9999878406524658]
//Ku1= 657368.4375  B= 0.14  mz= [1.5643308870494366e-10 0 0.9999889135360718]
//Ku1= 657368.4375  B= 0.16  mz= [5.820766091346741e-11 -1.4551915228366852e-11 0.9999898672103882]
//Ku1= 657368.4375  B= 0.18  mz= [9.731593308970332e-11 -1.4551915228366852e-10 0.9999905824661255]
//Ku1= 657368.4375  B= 0.2  mz= [6.730260793119669e-11 -1.4551915228366852e-10 0.9999911785125732]
//Ku1= 657368.4375  B= 0.22000000000000003  mz= [9.549694368615746e-11 -1.1641532182693481e-10 0.999991774559021]
//Ku1= 657368.4375  B= 0.24  mz= [1.0732037480920553e-10 -7.275957614183426e-12 0.9999924302101135]
//Ku1= 657368.4375  B= 0.26  mz= [9.185896487906575e-11 9.458744898438454e-11 0.9999927878379822]
//Ku1= 669473.6875  B= 0.08  mz= [9.094947017729282e-11 -5.820766091346741e-11 0.9999869465827942]
//Ku1= 669473.6875  B= 0.1  mz= [2.1464074961841106e-10 -1.7462298274040222e-10 0.9999880790710449]
//Ku1= 669473.6875  B= 0.12  mz= [1.5916157281026244e-10 -4.3655745685100555e-11 0.9999890327453613]
//Ku1= 669473.6875  B= 0.14  mz= [1.5188561519607902e-10 -7.275957614183426e-11 0.9999899864196777]
//Ku1= 669473.6875  B= 0.16  mz= [1.1368683772161603e-10 -4.3655745685100555e-11 0.999990701675415]
//Ku1= 669473.6875  B= 0.18  mz= [7.912603905424476e-11 -5.093170329928398e-11 0.9999914169311523]
//Ku1= 669473.6875  B= 0.2  mz= [7.821654435247183e-11 -7.275957614183426e-12 0.9999918937683105]
//Ku1= 669473.6875  B= 0.22000000000000003  mz= [6.639311322942376e-11 -1.0186340659856796e-10 0.9999924302101135]
//Ku1= 669473.6875  B= 0.24  mz= [8.731149137020111e-11 -1.0186340659856796e-10 0.9999929666519165]
//Ku1= 669473.6875  B= 0.26  mz= [5.002220859751105e-11 -5.093170329928398e-11 0.9999933838844299]
//Ku1= 681578.9375  B= 0.08  mz= [2.15550244320184e-10 1.4551915228366852e-11 0.9999883770942688]
//Ku1= 681578.9375  B= 0.1  mz= [1.1368683772161603e-10 3.637978807091713e-11 0.9999892711639404]
//Ku1= 681578.9375  B= 0.12  mz= [1.3915268937125802e-10 2.9103830456733704e-11 0.9999901056289673]
//Ku1= 681578.9375  B= 0.14  mz= [9.185896487906575e-11 2.9103830456733704e-11 0.9999908208847046]
//Ku1= 681578.9375  B= 0.16  mz= [1.0913936421275139e-10 -1.4551915228366852e-11 0.9999915361404419]
//Ku1= 681578.9375  B= 0.18  mz= [1.2369127944111824e-10 5.820766091346741e-11 0.9999920129776001]
//Ku1= 681578.9375  B= 0.2  mz= [7.003109203651547e-11 2.9103830456733704e-11 0.9999926090240479]
//Ku1= 681578.9375  B= 0.22000000000000003  mz= [5.184119800105691e-11 3.637978807091713e-12 0.9999929666519165]
//Ku1= 681578.9375  B= 0.24  mz= [7.73070496506989e-11 3.637978807091713e-12 0.9999934434890747]
//Ku1= 681578.9375  B= 0.26  mz= [3.9108272176235914e-11 1.4551915228366852e-11 0.9999937415122986]
//Ku1= 693684.1875  B= 0.08  mz= [1.4097167877480388e-10 -2.9103830456733704e-11 0.99998939037323]
//Ku1= 693684.1875  B= 0.1  mz= [1.8189894035458565e-10 -1.382431946694851e-10 0.9999902844429016]
//Ku1= 693684.1875  B= 0.12  mz= [8.822098607197404e-11 -2.9103830456733704e-11 0.9999909996986389]
//Ku1= 693684.1875  B= 0.14  mz= [8.185452315956354e-11 1.4551915228366852e-11 0.9999916553497314]
//Ku1= 693684.1875  B= 0.16  mz= [1.0186340659856796e-10 -1.0913936421275139e-11 0.9999922513961792]
//Ku1= 693684.1875  B= 0.18  mz= [4.3655745685100555e-11 -2.1827872842550278e-11 0.9999926090240479]
//Ku1= 693684.1875  B= 0.2  mz= [6.821210263296962e-11 -2.9103830456733704e-11 0.9999929666519165]
//Ku1= 693684.1875  B= 0.22000000000000003  mz= [5.002220859751105e-11 1.0913936421275139e-11 0.9999934434890747]
//Ku1= 693684.1875  B= 0.24  mz= [3.637978807091713e-11 -5.820766091346741e-11 0.9999938011169434]
//Ku1= 693684.1875  B= 0.26  mz= [5.4569682106375694e-11 -3.2741809263825417e-11 0.9999942183494568]
//Ku1= 705789.5  B= 0.08  mz= [6.275513442233205e-11 -3.637978807091713e-11 0.9999904632568359]
//Ku1= 705789.5  B= 0.1  mz= [1.3642420526593924e-10 -1.4551915228366852e-11 0.9999910593032837]
//Ku1= 705789.5  B= 0.12  mz= [7.912603905424476e-11 -1.382431946694851e-10 0.9999917149543762]
//Ku1= 705789.5  B= 0.14  mz= [9.185896487906575e-11 -1.4551915228366852e-11 0.9999922513961792]
//Ku1= 705789.5  B= 0.16  mz= [6.093614501878619e-11 -8.003553375601768e-11 0.9999927282333374]
//Ku1= 705789.5  B= 0.18  mz= [4.3655745685100555e-11 -5.093170329928398e-11 0.9999932050704956]
//Ku1= 705789.5  B= 0.2  mz= [6.730260793119669e-11 -5.820766091346741e-11 0.9999935626983643]
//Ku1= 705789.5  B= 0.22000000000000003  mz= [4.3655745685100555e-11 -9.458744898438454e-11 0.9999939203262329]
//Ku1= 705789.5  B= 0.24  mz= [5.729816621169448e-11 -4.3655745685100555e-11 0.9999942183494568]
//Ku1= 705789.5  B= 0.26  mz= [4.18367562815547e-11 -1.0186340659856796e-10 0.9999945163726807]
//Ku1= 717894.75  B= 0.08  mz= [5.911715561524034e-11 -1.3096723705530167e-10 0.999991238117218]
//Ku1= 717894.75  B= 0.1  mz= [5.4569682106375694e-11 -7.275957614183426e-12 0.9999918341636658]
//Ku1= 717894.75  B= 0.12  mz= [8.185452315956354e-11 0 0.9999924302101135]
//Ku1= 717894.75  B= 0.14  mz= [7.821654435247183e-11 0 0.9999927878379822]
//Ku1= 717894.75  B= 0.16  mz= [7.185008144006133e-11 -7.275957614183426e-11 0.9999932646751404]
//Ku1= 717894.75  B= 0.18  mz= [7.821654435247183e-11 -5.093170329928398e-11 0.999993622303009]
//Ku1= 717894.75  B= 0.2  mz= [3.092281986027956e-11 1.4551915228366852e-11 0.9999940395355225]
//Ku1= 717894.75  B= 0.22000000000000003  mz= [7.275957614183426e-11 -1.8189894035458565e-11 0.9999942779541016]
//Ku1= 717894.75  B= 0.24  mz= [4.001776687800884e-11 -4.3655745685100555e-11 0.9999945759773254]
//Ku1= 717894.75  B= 0.26  mz= [1.9099388737231493e-11 -4.001776687800884e-11 0.9999947547912598]
//Ku1= 730000  B= 0.08  mz= [9.458744898438454e-11 -1.4551915228366852e-11 0.9999920129776001]
//Ku1= 730000  B= 0.1  mz= [6.184563972055912e-11 -9.822542779147625e-11 0.9999924898147583]
//Ku1= 730000  B= 0.12  mz= [9.367795428261161e-11 -9.094947017729282e-11 0.9999929666519165]
//Ku1= 730000  B= 0.14  mz= [3.092281986027956e-11 -3.637978807091713e-12 0.9999932646751404]
//Ku1= 730000  B= 0.16  mz= [4.4565240386873484e-11 3.637978807091713e-12 0.9999936819076538]
//Ku1= 730000  B= 0.18  mz= [1.7280399333685637e-11 -5.820766091346741e-11 0.9999940395355225]
//Ku1= 730000  B= 0.2  mz= [6.275513442233205e-11 2.1827872842550278e-11 0.9999943375587463]
//Ku1= 730000  B= 0.22000000000000003  mz= [2.8194335754960775e-11 -3.637978807091713e-11 0.9999945759773254]
//Ku1= 730000  B= 0.24  mz= [3.092281986027956e-11 5.4569682106375694e-12 0.9999948740005493]
//Ku1= 730000  B= 0.26  mz= [2.9103830456733704e-11 -4.9112713895738125e-11 0.9999951720237732]
//********************************************************************//
//Please cite the following references, relevant for your simulation. //
//See bibtex file in output folder for justification.                 //
//********************************************************************//
//   * Mulkers et al., Phys. Rev. B 95, 144401 (2017).
//   * Vansteenkiste et al., AIP Adv. 4, 107133 (2014).
//   * Exl et al., J. Appl. Phys. 115, 17D118 (2014).
