# t (s)	mx ()	my ()	mz ()	Ku1 (J/m3)	mx ()	my ()	mz ()	maxTorque (T)
0	0.005157903	0.80006766	0.40460518	500000	0.0051579066	0.80006766	0.40460518	6.7335322e-06
0	0.005179949	0.76830786	0.50104123	500000	0.005179949	0.76830786	0.50104123	6.986594e-06
0	0.0055937655	0.72821844	0.5953331	500000	0.0055937693	0.72821844	0.5953331	2.8066424e-06
0	0.009639297	0.67847574	0.6871556	500000	0.009639297	0.67847574	0.6871556	2.5835766e-06
0	0.43509188	0.4375682	0.7697454	500000	0.4350919	0.4375682	0.7697454	7.942835e-06
0	0.35300654	0.35480538	0.8528869	500000	0.35300657	0.35480538	0.8528869	5.6436447e-06
0	0.24602014	0.24732736	0.92867106	500000	0.24602012	0.24732737	0.92867106	4.572171e-06
0	0.08427865	0.08477524	0.9910297	500000	0.084278665	0.08477525	0.99102974	3.076986e-06
0	-4.4410386e-05	-4.4686254e-05	0.9999227	500000	-4.4410386e-05	-4.4686254e-05	0.9999227	2.1968538e-06
0	-2.825289e-06	-2.8477516e-06	0.9999491	500000	-2.825289e-06	-2.8476352e-06	0.9999491	9.945267e-07
0	-0.6121006	-0.6123142	0.455636	512105.25	-0.6121006	-0.6123143	0.455636	7.4366667e-06
0	-0.5683311	-0.5684626	0.5615951	512105.25	-0.5683311	-0.5684626	0.561595	6.837407e-06
0	-0.512507	-0.5125893	0.6639925	512105.25	-0.512507	-0.5125893	0.6639925	6.1896303e-06
0	-0.44183284	-0.44190204	0.76204515	512105.25	-0.44183284	-0.441902	0.7620452	7.75722e-06
0	-0.3514251	-0.35149118	0.85410696	512105.25	-0.3514251	-0.35149118	0.85410696	5.173883e-06
0	-0.23150997	-0.23158003	0.9365489	512105.25	-0.23150997	-0.23158003	0.9365489	4.0516315e-06
0	-0.0007319856	-0.000732761	0.99987257	512105.25	-0.0007319856	-0.000732761	0.99987257	2.0098935e-06
0	-1.7819026e-05	-1.7844024e-05	0.9999302	512105.25	-1.7819026e-05	-1.7844024e-05	0.9999302	1.1359092e-06
0	-1.468552e-06	-1.4732359e-06	0.99995255	512105.25	-1.468552e-06	-1.4731777e-06	0.99995255	3.4184177e-07
0	-4.0490704e-08	-4.2520696e-08	0.9999642	512105.25	-4.0490704e-08	-4.246249e-08	0.9999642	3.4038558e-07
0	-0.00022087991	2.6496127e-07	0.5507046	524210.53	-0.00022087991	2.6496127e-07	0.5507046	3.815061e-06
0	-0.0001514554	-4.6158675e-08	0.66655314	524210.53	-0.0001514554	-4.6100467e-08	0.66655314	7.0612787e-06
0	-0.00011176616	3.0675437e-06	0.7771246	524210.53	-0.00011176616	3.0675437e-06	0.77712464	5.6431845e-06
0	-9.294599e-05	6.2806066e-07	0.8816527	524210.53	-9.294599e-05	6.285263e-07	0.8816528	4.352172e-06
0	-0.300834	0.007538476	0.9454683	524210.53	-0.30083397	0.007538476	0.9454683	5.200786e-06
0	-0.000110879766	2.700137e-06	0.9998913	524210.53	-0.00011087975	2.700137e-06	0.9998913	1.1399611e-06
0	-1.45482045e-05	3.4994446e-07	0.99993646	524210.53	-1.45482045e-05	3.4988625e-07	0.99993646	8.7087176e-07
0	-4.7173125e-07	9.429641e-09	0.99995553	524210.53	-4.7173125e-07	9.546056e-09	0.99995553	9.910879e-07
0	-1.0410076e-08	-2.3283064e-10	0.9999659	524210.53	-1.0410076e-08	-2.3283064e-10	0.9999659	1.2760424e-07
0	7.403287e-10	-1.1641532e-10	0.9999724	524210.53	7.403287e-10	-1.1641532e-10	0.9999724	6.14749e-07
0	0.00017887354	-0.0001920205	0.6387852	536315.8	0.00017887354	-0.0001920205	0.6387852	3.0946944e-06
0	0.00013179332	-0.00014129851	0.76708233	536315.8	0.00013180077	-0.00014129851	0.76708233	5.9222775e-06
0	0.00016759336	-0.00013008527	0.8872149	536315.8	0.00016758591	-0.00013008481	0.8872149	5.4917405e-06
0	0.2678159	-0.008450436	0.9562178	536315.8	0.2678159	-0.008450436	0.9562178	5.3024423e-06
0	7.030439e-05	-2.170913e-06	0.9999051	536315.8	7.030439e-05	-2.1711458e-06	0.9999051	1.3277523e-06
0	4.3908112e-06	-1.374865e-07	0.9999417	536315.8	4.3908112e-06	-1.374865e-07	0.99994177	9.600828e-07
0	2.2257518e-07	-8.090865e-09	0.99995816	536315.8	2.2257518e-07	-8.090865e-09	0.99995816	5.7569e-07
0	4.8548827e-09	-4.0745363e-10	0.99996746	536315.8	4.8548827e-09	-4.0745363e-10	0.99996746	3.1759456e-08
0	7.4396667e-10	-5.820766e-10	0.9999735	536315.8	7.4396667e-10	-5.820766e-10	0.99997354	4.069952e-07
0	3.4924597e-10	-4.656613e-10	0.99997765	536315.8	3.4924597e-10	-4.656613e-10	0.99997765	2.8841619e-06
0	-0.47125253	0.46791106	0.7207077	548421.06	-0.47125253	0.4679111	0.72070765	7.2273874e-06
0	-0.344403	0.34195185	0.8572736	548421.06	-0.344403	0.34195188	0.8572736	5.961203e-06
0	-0.15689814	0.1556861	0.96983546	548421.06	-0.15689816	0.15568611	0.96983546	5.398482e-06
0	-5.1737934e-06	5.1431125e-06	0.9999161	548421.06	-5.1737934e-06	5.1431125e-06	0.9999161	2.3026112e-07
0	-3.9312908e-07	3.9144652e-07	0.9999461	548421.06	-3.9312908e-07	3.913883e-07	0.9999461	1.3187807e-06
0	-2.622619e-08	2.712477e-08	0.99996054	548421.06	-2.622619e-08	2.7008355e-08	0.99996054	2.7497215e-06
0	-5.020411e-10	1.0477379e-09	0.999969	548421.06	-5.020411e-10	1.0477379e-09	0.999969	2.6029443e-07
0	4.5656634e-10	-4.3655746e-10	0.9999745	548421.06	4.5656634e-10	-4.3655746e-10	0.9999745	1.318402e-06
0	3.8380676e-10	-4.0745363e-10	0.9999784	548421.06	3.8380676e-10	-4.0745363e-10	0.9999784	7.5807696e-07
0	2.6193447e-10	-1.1641532e-10	0.9999812	548421.06	2.6193447e-10	-1.7462298e-10	0.9999812	9.432045e-07
0	1.2804521e-06	-9.457581e-07	0.99943066	560526.3	1.2804521e-06	-9.457581e-07	0.9994306	3.280148e-06
0	1.75895e-06	-1.3043173e-06	0.9998552	560526.3	1.75895e-06	-1.3044337e-06	0.9998552	1.4727241e-06
0	3.3951255e-07	-2.5163172e-07	0.9999247	560526.3	3.3951255e-07	-2.513989e-07	0.9999247	1.7012504e-06
0	2.6138878e-08	-1.9499566e-08	0.99995	560526.3	2.6138878e-08	-1.9266736e-08	0.99995	6.5310516e-08
0	2.9922376e-09	-2.240995e-09	0.9999626	560526.3	2.9922376e-09	-2.2118911e-09	0.9999626	1.1039527e-06
0	9.640644e-10	-4.656613e-10	0.9999702	560526.3	9.640644e-10	-4.656613e-10	0.9999702	6.436221e-08
0	5.620677e-10	-2.3283064e-10	0.9999754	560526.3	5.620677e-10	-2.3283064e-10	0.99997544	3.082926e-07
0	3.9108272e-10	-1.1641532e-10	0.9999791	560526.3	3.9108272e-10	-1.1641532e-10	0.9999791	1.2328736e-07
0	2.0372681e-10	-2.6193447e-10	0.9999819	560526.3	2.0372681e-10	-2.6193447e-10	0.9999819	2.903517e-07
0	2.6375346e-10	-1.1641532e-10	0.9999839	560526.3	2.6375346e-10	-1.1641532e-10	0.9999839	7.448255e-07
0	1.5887053e-08	-9.546056e-09	0.9998783	572631.56	1.5887053e-08	-9.546056e-09	0.9998783	5.538581e-07
0	6.73208e-09	-5.47152e-09	0.9999318	572631.56	6.73208e-09	-5.47152e-09	0.9999318	9.674923e-07
0	2.3319444e-09	-1.4551915e-09	0.9999533	572631.56	2.3319444e-09	-1.5133992e-09	0.9999533	4.9746413e-06
0	1.207809e-09	-8.440111e-10	0.9999646	572631.56	1.207809e-09	-7.2759576e-10	0.9999646	1.1926654e-06
0	8.8766683e-10	-1.4551915e-10	0.9999715	572631.56	8.8766683e-10	-8.731149e-11	0.9999715	1.5890859e-06
0	5.12955e-10	-5.820766e-10	0.99997634	572631.56	5.12955e-10	-5.820766e-10	0.99997634	6.6574773e-07
0	4.2382453e-10	-1.1641532e-10	0.99997973	572631.56	4.2382453e-10	-1.1641532e-10	0.9999796	1.4800138e-06
0	2.3646862e-10	-2.0372681e-10	0.99998224	572631.56	2.3646862e-10	-1.7462298e-10	0.99998224	6.409082e-06
0	2.0372681e-10	-2.910383e-11	0.9999843	572631.56	2.0372681e-10	-2.910383e-11	0.9999844	1.2429173e-05
0	1.8189894e-10	0	0.99998593	572631.56	1.8189894e-10	5.820766e-11	0.99998593	4.677153e-07
0	2.9722287e-09	-1.7462298e-09	0.99993783	584736.8	2.9722287e-09	-1.7462298e-09	0.99993783	3.658956e-07
0	1.8153514e-09	-1.3969839e-09	0.99995625	584736.8	1.8153514e-09	-1.3969839e-09	0.9999562	1.2096437e-07
0	1.0913936e-09	-7.2759576e-10	0.9999663	584736.8	1.0913936e-09	-7.2759576e-10	0.99996626	1.0461985e-06
0	7.7852746e-10	-7.566996e-10	0.9999727	584736.8	7.7852746e-10	-6.9849193e-10	0.9999727	1.0861323e-06
0	4.110916e-10	-4.656613e-10	0.99997705	584736.8	4.110916e-10	-4.656613e-10	0.99997705	4.3808433e-07
0	3.274181e-10	-2.910383e-10	0.9999802	584736.8	3.274181e-10	-2.910383e-10	0.9999802	1.06304114e-07
0	2.237357e-10	-1.7462298e-10	0.9999828	584736.8	2.237357e-10	-2.910383e-10	0.9999828	9.0213837e-07
0	1.555236e-10	-1.4551915e-10	0.9999846	584736.8	1.555236e-10	-1.4551915e-10	0.9999847	1.0046454e-07
0	1.537046e-10	-1.4551915e-10	0.9999863	584736.8	1.537046e-10	-8.731149e-11	0.9999863	1.5336114e-07
0	3.274181e-11	-1.4551915e-10	0.99998754	584736.8	3.274181e-11	-2.0372681e-10	0.9999876	3.5201907e-08
0	1.5133992e-09	-9.313226e-10	0.9999589	596842.06	1.5133992e-09	-1.0477379e-09	0.9999589	7.1730386e-07
0	8.039933e-10	-5.2386895e-10	0.9999678	596842.06	8.039933e-10	-5.2386895e-10	0.9999678	1.7003255e-06
0	6.657501e-10	-2.6193447e-10	0.9999738	596842.06	6.657501e-10	-3.783498e-10	0.9999738	8.0235486e-07
0	4.3655746e-10	-2.910383e-10	0.99997777	596842.06	4.3655746e-10	-2.910383e-10	0.9999777	6.519965e-07
0	2.6739144e-10	-1.891749e-10	0.99998087	596842.06	2.6739144e-10	-3.0559022e-10	0.99998087	4.5267578e-07
0	1.9826984e-10	-2.1827873e-10	0.9999832	596842.06	1.9826984e-10	-2.764864e-10	0.9999832	9.4498444e-07
0	1.6825652e-10	-1.0186341e-10	0.99998504	596842.06	1.6825652e-10	-1.0186341e-10	0.99998504	4.8781317e-07
0	2.237357e-10	-1.4551915e-10	0.9999865	596842.06	2.237357e-10	-2.0372681e-10	0.99998647	1.0432693e-05
0	1.7735147e-10	-1.1641532e-10	0.9999878	596842.06	1.7735147e-10	-1.7462298e-10	0.9999877	4.6506477e-07
0	1.6916601e-10	-2.910383e-11	0.9999888	596842.06	1.6916601e-10	-2.1827873e-11	0.9999888	2.9081335e-07
0	8.3127816e-10	-2.910383e-10	0.9999693	608947.44	8.3127816e-10	-3.2014214e-10	0.9999693	4.1090397e-07
0	7.0940587e-10	-4.656613e-10	0.9999747	608947.44	7.0940587e-10	-4.656613e-10	0.9999747	2.6727819e-06
0	3.6379788e-10	-4.656613e-10	0.99997854	608947.44	3.6379788e-10	-4.656613e-10	0.9999784	1.8833839e-07
0	3.4742698e-10	-4.3655746e-11	0.9999814	608947.44	3.4742698e-10	-1.0186341e-10	0.9999814	4.7387834e-07
0	2.0190782e-10	-1.1641532e-10	0.99998355	608947.44	2.0190782e-10	-5.820766e-11	0.99998355	1.2401887e-06
0	1.6279955e-10	-4.3655746e-11	0.99998546	608947.44	1.6279955e-10	0	0.99998546	7.248608e-08
0	9.1858965e-11	-4.3655746e-11	0.99998695	608947.44	9.1858965e-11	-1.0186341e-10	0.9999868	1.2339866e-06
0	1.7371349e-10	-1.2369128e-10	0.99998796	608947.44	1.7371349e-10	-1.2369128e-10	0.99998796	1.0337369e-06
0	1.382432e-10	-1.4551915e-11	0.99998903	608947.44	1.382432e-10	-2.1827873e-11	0.99998903	5.673872e-07
0	1.1004886e-10	-1.4551915e-11	0.99998987	608947.44	1.1004886e-10	-8.0035534e-11	0.9999899	6.8088e-06
0	4.4019544e-10	-4.0745363e-10	0.9999757	621052.56	4.4019544e-10	-4.0745363e-10	0.99997574	9.590598e-06
0	3.4015102e-10	-1.7462298e-10	0.99997914	621052.56	3.4015102e-10	-1.7462298e-10	0.99997914	1.9361285e-06
0	2.8740033e-10	-8.731149e-11	0.9999819	621052.56	2.8740033e-10	-8.731149e-11	0.9999819	4.5513536e-07
0	1.6007107e-10	-1.1641532e-10	0.999984	621052.56	1.6007107e-10	-1.1641532e-10	0.9999841	5.7516985e-07
0	1.5097612e-10	-1.6007107e-10	0.99998564	621052.56	1.5097612e-10	-1.6007107e-10	0.9999857	2.2988624e-07
0	1.3096724e-10	-4.3655746e-11	0.9999871	621052.56	1.3096724e-10	-4.3655746e-11	0.9999871	4.916246e-07
0	1.8553692e-10	0	0.9999882	621052.56	1.8553692e-10	0	0.9999884	4.865398e-07
0	1.2551027e-10	-3.6379788e-11	0.99998915	621052.56	1.2551027e-10	-4.3655746e-11	0.99998915	2.8422193e-07
0	1.3551471e-10	-1.3096724e-10	0.99999005	621052.56	1.3551471e-10	-1.3096724e-10	0.99999017	3.6929215e-08
0	9.913492e-11	3.6379788e-11	0.9999908	621052.56	9.913492e-11	-2.1827873e-11	0.9999908	4.946285e-06
0	3.8744474e-10	-1.891749e-10	0.99997985	633157.94	3.8744474e-10	-1.891749e-10	0.99997973	2.386838e-07
0	2.0372681e-10	-1.4551915e-11	0.9999824	633157.94	2.0372681e-10	-1.4551915e-11	0.99998236	3.9902338e-07
0	1.8189894e-10	-2.1827873e-10	0.9999844	633157.94	1.8189894e-10	-1.7462298e-10	0.9999844	3.512681e-07
0	1.4460966e-10	-2.910383e-11	0.99998605	633157.94	1.4460966e-10	-2.910383e-11	0.99998605	5.634311e-07
0	8.0035534e-11	-8.731149e-11	0.9999873	633157.94	8.0035534e-11	-8.731149e-11	0.99998736	9.0852626e-07
0	2.4283509e-10	-7.275958e-12	0.9999885	633157.94	2.4283509e-10	-7.275958e-12	0.9999885	1.0328895e-06
0	1.1368684e-10	-1.7462298e-10	0.9999894	633157.94	1.1368684e-10	-1.1641532e-10	0.9999894	2.2539616e-07
0	1.2460077e-10	8.731149e-11	0.9999902	633157.94	1.2460077e-10	8.731149e-11	0.9999902	2.3913282e-07
0	1.09139364e-10	-2.910383e-11	0.999991	633157.94	1.09139364e-10	-4.3655746e-11	0.999991	2.273913e-07
0	1.05501385e-10	-1.1641532e-10	0.99999166	633157.94	1.05501385e-10	-5.820766e-11	0.99999166	2.1095047e-07
0	2.0736479e-10	-2.910383e-10	0.99998283	645263.2	2.0736479e-10	-3.4924597e-10	0.99998283	3.7428663e-07
0	2.0736479e-10	-1.1641532e-10	0.9999848	645263.2	2.0736479e-10	-1.1641532e-10	0.9999848	1.6852137e-07
0	1.546141e-10	-2.764864e-10	0.9999863	645263.2	1.546141e-10	-2.764864e-10	0.9999863	1.08003846e-07
0	1.7462298e-10	0	0.9999876	645263.2	1.7462298e-10	0	0.9999876	3.2520788e-07
0	1.537046e-10	-2.910383e-11	0.99998873	645263.2	1.537046e-10	-2.910383e-11	0.9999886	8.732308e-07
0	1.5006663e-10	-5.820766e-11	0.9999896	645263.2	1.5006663e-10	0	0.99998957	1.291602e-06
0	1.6552804e-10	-2.910383e-11	0.9999904	645263.2	1.6552804e-10	-2.910383e-11	0.9999904	1.7301418e-05
0	3.0013325e-11	1.4551915e-11	0.99999106	645263.2	3.0013325e-11	2.910383e-11	0.999991	1.0281425e-06
0	1.03682396e-10	-3.6379788e-11	0.99999166	645263.2	1.03682396e-10	-2.1827873e-11	0.99999166	6.6061205e-07
0	9.640644e-11	7.275958e-12	0.99999225	645263.2	9.640644e-11	7.275958e-12	0.99999225	8.4311495e-07
0	1.3460522e-10	-5.820766e-11	0.99998516	657368.44	1.3460522e-10	-5.820766e-11	0.9999851	2.6699487e-07
0	1.9917934e-10	-2.6193447e-10	0.9999865	657368.44	1.9917934e-10	-2.6193447e-10	0.9999865	1.1082905e-05
0	1.209628e-10	4.3655746e-11	0.99998784	657368.44	1.209628e-10	4.3655746e-11	0.99998784	9.46978e-08
0	1.5643309e-10	-5.820766e-11	0.99998885	657368.44	1.5643309e-10	-5.820766e-11	0.99998885	5.5903435e-08
0	5.820766e-11	-2.1827873e-11	0.99998987	657368.44	5.820766e-11	-2.1827873e-11	0.99998987	1.7383004e-06
0	9.731593e-11	-1.4551915e-10	0.9999906	657368.44	9.731593e-11	-1.4551915e-10	0.9999906	1.0647825e-06
0	6.730261e-11	-1.4551915e-10	0.99999124	657368.44	6.730261e-11	-1.1641532e-10	0.99999124	7.746622e-07
0	9.5496944e-11	-1.7462298e-10	0.99999183	657368.44	9.5496944e-11	-1.7462298e-10	0.99999183	3.2831474e-07
0	1.07320375e-10	-7.275958e-12	0.9999924	657368.44	1.07320375e-10	-2.5465852e-11	0.99999243	6.018704e-07
0	9.1858965e-11	6.548362e-11	0.9999928	657368.44	9.1858965e-11	3.6379788e-11	0.9999928	6.4534794e-07
0	9.094947e-11	-1.4551915e-11	0.99998695	669473.7	9.094947e-11	0	0.99998695	4.164303e-07
0	2.1464075e-10	-1.7462298e-10	0.9999881	669473.7	2.1464075e-10	-1.5279511e-10	0.9999881	1.0670823e-06
0	1.5916157e-10	-7.275958e-12	0.99998903	669473.7	1.5916157e-10	-2.910383e-11	0.99998915	6.640282e-08
0	1.5188562e-10	-7.2759576e-11	0.99999	669473.7	1.5188562e-10	-7.2759576e-11	0.99999	2.5285143e-08
0	1.1368684e-10	-5.0931703e-11	0.9999907	669473.7	1.1368684e-10	-5.0931703e-11	0.9999907	2.1989007e-07
0	7.912604e-11	-5.0931703e-11	0.9999914	669473.7	7.912604e-11	-5.0931703e-11	0.9999914	2.1518807e-07
0	7.8216544e-11	2.910383e-11	0.99999195	669473.7	7.8216544e-11	2.910383e-11	0.99999195	3.6270595e-07
0	6.639311e-11	-1.0186341e-10	0.99999243	669473.7	6.639311e-11	-7.6397555e-11	0.99999243	3.5195883e-06
0	8.731149e-11	-1.2732926e-10	0.99999297	669473.7	8.731149e-11	-1.0186341e-10	0.99999297	3.1127044e-08
0	5.002221e-11	-2.1827873e-11	0.9999934	669473.7	5.002221e-11	-2.1827873e-11	0.99999326	1.0133681e-06
0	2.1555024e-10	1.4551915e-11	0.9999883	681578.94	2.1555024e-10	1.4551915e-11	0.9999884	3.2989362e-07
0	1.1368684e-10	4.3655746e-11	0.9999893	681578.94	1.1368684e-10	4.3655746e-11	0.9999893	2.5225776e-07
0	1.3915269e-10	2.910383e-11	0.9999901	681578.94	1.3915269e-10	2.910383e-11	0.99999017	7.9306614e-07
0	9.1858965e-11	2.910383e-11	0.9999908	681578.94	9.1858965e-11	2.910383e-11	0.9999909	4.8545846e-08
0	1.09139364e-10	-1.4551915e-11	0.9999915	681578.94	1.09139364e-10	-1.4551915e-11	0.9999915	3.3065345e-07
0	1.2369128e-10	5.820766e-11	0.99999195	681578.94	1.2369128e-10	5.820766e-11	0.999992	1.2545708e-07
0	7.003109e-11	-2.910383e-11	0.9999926	681578.94	7.003109e-11	-3.6379788e-11	0.9999926	5.527759e-07
0	5.1841198e-11	3.637979e-12	0.99999297	681578.94	5.1841198e-11	3.637979e-12	0.99999297	3.170802e-07
0	7.730705e-11	3.637979e-12	0.99999344	681578.94	7.730705e-11	3.637979e-12	0.99999344	1.6124278e-07
0	3.9108272e-11	-1.4551915e-11	0.99999374	681578.94	3.9108272e-11	1.4551915e-11	0.99999374	4.6921764e-06
0	1.4097168e-10	-2.910383e-11	0.9999894	693684.2	1.4097168e-10	-2.910383e-11	0.9999894	3.7059044e-07
0	1.8189894e-10	-1.382432e-10	0.9999902	693684.2	1.8189894e-10	-1.382432e-10	0.9999903	1.588662e-07
0	8.8220986e-11	-2.910383e-11	0.999991	693684.2	8.8220986e-11	-2.910383e-11	0.999991	1.1266352e-05
0	8.185452e-11	-4.3655746e-11	0.99999166	693684.2	8.185452e-11	-4.3655746e-11	0.99999166	5.7864497e-08
0	1.0186341e-10	-1.0913936e-11	0.99999225	693684.2	1.0186341e-10	-1.0913936e-11	0.99999225	6.4238867e-07
0	4.3655746e-11	3.6379788e-11	0.9999926	693684.2	4.3655746e-11	3.6379788e-11	0.9999926	4.444692e-07
0	6.82121e-11	-2.1827873e-11	0.99999297	693684.2	6.82121e-11	-2.910383e-11	0.99999297	2.3499244e-07
0	5.002221e-11	-1.8189894e-11	0.99999344	693684.2	5.002221e-11	7.275958e-12	0.99999344	1.6215196e-07
0	3.6379788e-11	-7.2759576e-11	0.9999938	693684.2	3.6379788e-11	-5.820766e-11	0.9999938	7.0121523e-06
0	5.4569682e-11	-3.274181e-11	0.9999942	693684.2	5.4569682e-11	-5.0931703e-11	0.9999942	2.0814412e-06
0	6.2755134e-11	-3.6379788e-11	0.99999046	705789.5	6.2755134e-11	0	0.9999904	1.0001233e-06
0	1.364242e-10	-1.4551915e-11	0.99999106	705789.5	1.364242e-10	-1.4551915e-11	0.99999106	1.6236072e-07
0	7.912604e-11	-1.3096724e-10	0.9999917	705789.5	7.912604e-11	-1.3096724e-10	0.9999917	1.7620122e-06
0	9.1858965e-11	-1.8189894e-11	0.99999225	705789.5	9.1858965e-11	-1.8189894e-11	0.99999225	3.9851436e-08
0	6.0936145e-11	-8.0035534e-11	0.9999927	705789.5	6.0936145e-11	-8.0035534e-11	0.9999927	1.1611754e-06
0	4.3655746e-11	-6.548362e-11	0.9999932	705789.5	4.3655746e-11	-5.0931703e-11	0.9999932	9.750662e-07
0	6.730261e-11	-5.820766e-11	0.99999356	705789.5	6.730261e-11	-5.820766e-11	0.99999356	5.7664664e-07
0	4.3655746e-11	-6.548362e-11	0.9999939	705789.5	4.3655746e-11	-8.731149e-11	0.9999939	3.0887423e-07
0	5.7298166e-11	-3.6379788e-11	0.9999942	705789.5	5.7298166e-11	-1.4551915e-11	0.9999942	3.2535883e-07
0	4.1836756e-11	-1.0186341e-10	0.9999945	705789.5	4.1836756e-11	-7.2759576e-11	0.9999946	3.4384946e-08
0	5.9117156e-11	-1.5279511e-10	0.99999124	717894.75	5.9117156e-11	-1.3096724e-10	0.9999912	8.194723e-06
0	5.4569682e-11	-2.1827873e-11	0.99999183	717894.75	5.4569682e-11	-2.1827873e-11	0.99999183	3.6916805e-07
0	8.185452e-11	-2.1827873e-11	0.99999243	717894.75	8.185452e-11	0	0.99999243	9.875748e-06
0	7.8216544e-11	0	0.9999928	717894.75	7.8216544e-11	0	0.9999928	3.9936504e-07
0	7.185008e-11	-1.382432e-10	0.99999326	717894.75	7.185008e-11	-1.382432e-10	0.99999326	7.379736e-08
0	7.8216544e-11	-5.0931703e-11	0.9999936	717894.75	7.8216544e-11	-5.0931703e-11	0.9999936	1.2381031e-07
0	3.092282e-11	1.4551915e-11	0.99999404	717894.75	3.092282e-11	4.0017767e-11	0.99999404	6.356798e-08
0	7.2759576e-11	-1.8189894e-11	0.9999943	717894.75	7.2759576e-11	-1.8189894e-11	0.9999943	7.681625e-07
0	4.0017767e-11	-4.3655746e-11	0.9999946	717894.75	4.0017767e-11	-4.3655746e-11	0.9999946	1.1807919e-07
0	1.9099389e-11	-4.0017767e-11	0.9999949	717894.75	1.9099389e-11	-1.2732926e-11	0.9999949	1.2851816e-06
0	9.458745e-11	-1.4551915e-11	0.99999195	730000	9.458745e-11	-1.4551915e-11	0.99999195	4.7517762e-08
0	6.184564e-11	-1.5643309e-10	0.99999243	730000	6.184564e-11	-1.5643309e-10	0.99999243	7.1726674e-07
0	9.3677954e-11	-9.094947e-11	0.99999297	730000	9.3677954e-11	-9.094947e-11	0.99999297	9.681466e-06
0	3.092282e-11	-1.0913936e-11	0.99999326	730000	3.092282e-11	-3.637979e-12	0.99999326	1.5766497e-07
0	4.456524e-11	1.4551915e-11	0.99999374	730000	4.456524e-11	-1.4438228e-11	0.9999936	4.1530615e-07
0	1.72804e-11	-3.6379788e-11	0.99999404	730000	1.72804e-11	-3.6379788e-11	0.99999404	1.4482993e-07
0	6.2755134e-11	2.1827873e-11	0.9999944	730000	6.2755134e-11	2.1827873e-11	0.9999944	1.1840801e-07
0	2.8194336e-11	-3.6379788e-11	0.9999946	730000	2.8194336e-11	2.1827873e-11	0.9999946	4.0681277e-07
0	3.092282e-11	-1.6370905e-11	0.9999949	730000	3.092282e-11	-1.6370905e-11	0.9999949	3.8558298e-08
0	2.910383e-11	-6.002665e-11	0.9999952	730000	2.910383e-11	-5.0931703e-11	0.9999952	3.1967377e-07
