//mumax 3.12 [windows_amd64 go1.26.0(gc) CUDA-12.9]
//commit hash: 6e5c98bb
//CPU info: Unknown, Error: exec: "wmic": executable file not found in %PATH%
//GPU info: NVIDIA GeForce RTX 5070 Ti(16302MB), CUDA Driver 13.1, cc=12.0, using cc=120 PTX
//OS  info: Windows OS, Hostname: nachjs-pc1
//Timestamp: 2026-07-07 19:56:26
//(c) Arne Vansteenkiste, Dynamat LAB, Ghent University, Belgium
//This is free software without any warranty. See license.txt
//********************************************************************//
//  If you use mumax in any work or publication,                      //
//  we kindly ask you to cite the references in references.bib        //
//********************************************************************//
//output directory: CoFeB_VCMA_Bext_initialUniform.out/
SetGridsize(64, 64, 1)
SetCellsize(3e-9, 3e-9, 1.5e-9)
Msat = 1.0e6
Aex = 15e-12
alpha = 0.02
anisU = vector(0, 0, 1)
Dind = 0.06e-3
B_ext = vector(0, 0, 0.08)
TableAdd(Ku1)
TableAdd(m)
TableAdd(MaxTorque)
Ku1 = 0.73e6
m = uniform(0, 0, -1)
Print("mz = ", m.average(), "  MaxTorque = ", MaxTorque.Get())
//mz =  [0 0 -1]   MaxTorque =  0.028278615073689867
Save(m)
N := 40
Ku1_lo := 0.5e6
Ku1_hi := 0.73e6
dKu1 := (Ku1_hi - Ku1_lo) / (N - 1)
Ntotal := 2*N - 1
for i := 0; i < Ntotal; i++ {
	if i < N {
		Ku1 = Ku1_lo + i*dKu1
	} else {
		j := i - (N - 1)
		Ku1 = Ku1_hi - j*dKu1
	}
	Relax()
	TableSave()
	SaveAs(m, sprintf("m_%03d", i))
	Print("step=", i, " Ku1=", Ku1, " mz=", m.average()[2])
}
//step= 0  Ku1= 500000  mz= 0.438396692276001
//step= 1  Ku1= 505897.46875  mz= 0.4684213697910309
//step= 2  Ku1= 511794.9375  mz= 0.501961350440979
//step= 3  Ku1= 517692.28125  mz= 0.5394866466522217
//step= 4  Ku1= 523589.75  mz= 0.5814331769943237
//step= 5  Ku1= 529487.1875  mz= 0.6280326247215271
//step= 6  Ku1= 535384.5625  mz= 0.5664925575256348
//step= 7  Ku1= 541282.0625  mz= 0.6135212779045105
//step= 8  Ku1= 547179.5  mz= 0.6668609976768494
//step= 9  Ku1= 553076.9375  mz= 0.7273157835006714
//step= 10  Ku1= 558974.4375  mz= 0.7956997156143188
//step= 11  Ku1= 564871.8125  mz= 0.8755582571029663
//step= 12  Ku1= 570769.25  mz= 0.999858558177948
//step= 13  Ku1= 576666.6875  mz= 0.9999071359634399
//step= 14  Ku1= 582564.0625  mz= 0.9999316930770874
//step= 15  Ku1= 588461.5625  mz= 0.9999462962150574
//step= 16  Ku1= 594359  mz= 0.9999557733535767
//step= 17  Ku1= 600256.4375  mz= 0.9999623894691467
//step= 18  Ku1= 606153.9375  mz= 0.9999673366546631
//step= 19  Ku1= 612051.3125  mz= 0.9999712705612183
//step= 20  Ku1= 617948.6875  mz= 0.999974250793457
//step= 21  Ku1= 623846.0625  mz= 0.9999767541885376
//step= 22  Ku1= 629743.5625  mz= 0.9999787211418152
//step= 23  Ku1= 635641  mz= 0.9999804496765137
//step= 24  Ku1= 641538.4375  mz= 0.9999819993972778
//step= 25  Ku1= 647435.9375  mz= 0.9999833106994629
//step= 26  Ku1= 653333.3125  mz= 0.9999844431877136
//step= 27  Ku1= 659230.75  mz= 0.99998539686203
//step= 28  Ku1= 665128.1875  mz= 0.9999862909317017
//step= 29  Ku1= 671025.5625  mz= 0.9999870657920837
//step= 30  Ku1= 676923.0625  mz= 0.9999878406524658
//step= 31  Ku1= 682820.5  mz= 0.9999883770942688
//step= 32  Ku1= 688717.9375  mz= 0.9999890327453613
//step= 33  Ku1= 694615.4375  mz= 0.9999896287918091
//step= 34  Ku1= 700512.875  mz= 0.9999899864196777
//step= 35  Ku1= 706410.25  mz= 0.9999905228614807
//step= 36  Ku1= 712307.625  mz= 0.9999908804893494
//step= 37  Ku1= 718205.0625  mz= 0.9999912977218628
//step= 38  Ku1= 724102.5625  mz= 0.9999916553497314
//step= 39  Ku1= 730000  mz= 0.9999918937683105
//step= 40  Ku1= 724102.5625  mz= 0.9999916553497314
//step= 41  Ku1= 718205.0625  mz= 0.9999912977218628
//step= 42  Ku1= 712307.625  mz= 0.9999908804893494
//step= 43  Ku1= 706410.25  mz= 0.9999905228614807
//step= 44  Ku1= 700512.875  mz= 0.9999899864196777
//step= 45  Ku1= 694615.4375  mz= 0.9999895691871643
//step= 46  Ku1= 688717.9375  mz= 0.9999889731407166
//step= 47  Ku1= 682820.5  mz= 0.9999883770942688
//step= 48  Ku1= 676923.0625  mz= 0.9999878406524658
//step= 49  Ku1= 671025.5625  mz= 0.9999871253967285
//step= 50  Ku1= 665128.1875  mz= 0.9999862909317017
//step= 51  Ku1= 659230.75  mz= 0.99998539686203
//step= 52  Ku1= 653333.3125  mz= 0.9999843835830688
//step= 53  Ku1= 647435.9375  mz= 0.9999833106994629
//step= 54  Ku1= 641538.4375  mz= 0.9999819993972778
//step= 55  Ku1= 635641  mz= 0.9999804496765137
//step= 56  Ku1= 629743.5625  mz= 0.9999787211418152
//step= 57  Ku1= 623846.0625  mz= 0.9999767541885376
//step= 58  Ku1= 617948.6875  mz= 0.999974250793457
//step= 59  Ku1= 612051.3125  mz= 0.9999712705612183
//step= 60  Ku1= 606153.9375  mz= 0.9999673962593079
//step= 61  Ku1= 600256.4375  mz= 0.9999623894691467
//step= 62  Ku1= 594359  mz= 0.9999557733535767
//step= 63  Ku1= 588461.5625  mz= 0.9999462962150574
//step= 64  Ku1= 582564.0625  mz= 0.9999316930770874
//step= 65  Ku1= 576666.6875  mz= 0.9999071359634399
//step= 66  Ku1= 570769.25  mz= 0.9998586177825928
//step= 67  Ku1= 564871.8125  mz= 0.9997328519821167
//step= 68  Ku1= 558974.4375  mz= 0.9992144107818604
//step= 69  Ku1= 553076.9375  mz= 0.99827641248703
//step= 70  Ku1= 547179.5  mz= 0.7081567645072937
//step= 71  Ku1= 541282.0625  mz= 0.6523907780647278
//step= 72  Ku1= 535384.5625  mz= 0.6027566194534302
//step= 73  Ku1= 529487.1875  mz= 0.5587161183357239
//step= 74  Ku1= 523589.75  mz= 0.5196542143821716
//step= 75  Ku1= 517692.28125  mz= 0.48496881127357483
//step= 76  Ku1= 511794.9375  mz= 0.4540995955467224
//step= 77  Ku1= 505897.46875  mz= 0.426547110080719
//step= 78  Ku1= 500000  mz= 0.4018755555152893
//********************************************************************//
//Please cite the following references, relevant for your simulation. //
//See bibtex file in output folder for justification.                 //
//********************************************************************//
//   * Mulkers et al., Phys. Rev. B 95, 144401 (2017).
//   * Vansteenkiste et al., AIP Adv. 4, 107133 (2014).
